Title: * C:\Users\mn080015\OneDrive - Qorvo\Documents\QSPICE\QSPICE_on_MWJ_SIJ\Article3\Sim1\VRM_PSRR_LineReg_sch.qsch
Date: Fri Apr 14 14:38:14 2023
Plotname: AC Analysis
Plot Suggestion(s): «AC 1/V(VOUT)»
Flags: complex stepped
Abscissa: 1.000000000000000e+00 1.000000000000000e+07 dec
No. Variables: 35
No. Points: 140                  
Command: QSPICE80, Build Apr 11 2023 09:05:22
.alias freq frequency
.alias omega 2*pi*frequency
Variables:
	0	frequency	frequency
	1	V(vout)	voltage
	2	V(vin)	voltage
	3	V(n04)	voltage
	4	V(n08)	voltage
	5	V(n01)	voltage
	6	V(n02)	voltage
	7	V(n10)	voltage
	8	V(n07)	voltage
	9	V(n03)	voltage
	10	V(n09)	voltage
	11	V(n11)	voltage
	12	V(n06)	voltage
	13	V(n05)	voltage
	14	I(LOPEN)	current
	15	I(LESL)	current
	16	I(ELINEREG)	current
	17	I(VM15)	current
	18	I(V15)	current
	19	I(VIN)	current
	20	I(VREF)	current
	21	I(VRIPPLE)	current
	22	Id(M_PMOS)	current
	23	Is(M_PMOS)	current
	24	Ig(M_PMOS)	current
	25	Ib(M_PMOS)	current
	26	I(RNR)	current
	27	I(RG)	current
	28	I(RFB)	current
	29	I(RESR)	current
	30	I(RLOAD)	current
	31	I(COPEN)	current
	32	I(CNR)	current
	33	I(COUT)	current
	34	x	parameter
Values:
0		1.000000000000000e+00
	6.688082906862993e+02,-6.752132203705527e+00
	1.000000000000000e+00,0.000000000000000e+00
	0.000000000000000e+00,0.000000000000000e+00
	0.000000000000000e+00,0.000000000000000e+00
	0.000000000000000e+00,0.000000000000000e+00
	0.000000000000000e+00,0.000000000000000e+00
	1.193896583011261e+05,1.608630065138185e+04
	1.992135364814325e-04,-1.251695565411409e-05
	6.688082906862994e+01,-6.752132203705528e-01
	-4.639580314239494e-04,-1.940892559375781e-02
	6.688082886922708e+02,-6.752329709286930e+00
	-2.481928334316334e-10,2.505770145456494e-12
	2.000000000000000e-04,0.000000000000000e+00
	2.560217353756245e+00,-1.900145434651778e+01
	1.994028524507493e-03,1.975055814031393e-01
	-7.864635185674989e-13,-1.251695565411409e-11
	-1.279211000939621e+02,2.110835653544618e+00
	5.971223975121627e+00,8.042986326657241e-01
	-6.696765018264663e+00,-1.299167380443469e-01
	-7.864635185674989e-13,-1.251695565411409e-11
	-6.696765018264663e+00,-1.299167380443469e-01
	-6.696765018264662e+00,-1.299167380443469e-01
	6.696765018264662e+00,1.299167380443469e-01
	0.000000000000000e+00,0.000000000000000e+00
	-7.252072166814099e-94,7.332486089805683e-96
	7.864635185674841e-13,1.251695565411409e-11
	6.688082906862994e-03,-6.752132203705527e-05
	6.688082906862993e-03,-6.752132203705526e-05
	1.994028480112320e-03,1.975055814034121e-01
	6.688082906862993e+00,-6.752132203705527e-02
	1.219498761188404e+02,-2.915134286210332e+00
	7.864635185674732e-13,1.251695565411409e-11
	1.994028524507495e-03,1.975055814031393e-01
	0.000000000000000e+00,0.000000000000000e+00
1		1.258925411794167e+00
	6.684936313552415e+02,-1.453214842844119e+01
	1.000000000000000e+00,0.000000000000000e+00
	0.000000000000000e+00,0.000000000000000e+00
	0.000000000000000e+00,0.000000000000000e+00
	0.000000000000000e+00,0.000000000000000e+00
	0.000000000000000e+00,0.000000000000000e+00
	1.203685978712142e+05,1.124115187818897e+04
	1.987563995865847e-04,-1.572175374105655e-05
	6.684936313552416e+01,-1.453214842844120e+00
	-5.026488253517313e-04,-1.539681058710674e-02
	6.684936259524901e+02,-1.453239695625351e+01
	-3.931740634508865e-10,8.547219212245426e-12
	2.000000000000000e-04,0.000000000000000e+00
	1.421122586912674e+00,-1.521715047195787e+01
	5.402751324958114e-03,2.485278123211247e-01
	-1.243600413415304e-12,-1.572175374105655e-11
	-1.278098911142941e+02,3.413961940413895e+00
	6.020170153518445e+00,5.620212565444167e-01
	-6.697024001262725e+00,-1.030610065508675e-01
	-1.243600413415304e-12,-1.572175374105655e-11
	-6.697024001262725e+00,-1.030610065508675e-01
	-6.697024001262725e+00,-1.030610065508675e-01
	6.697024001262725e+00,1.030610065508675e-01
	0.000000000000000e+00,0.000000000000000e+00
	-7.248655120022949e-94,1.578120406885086e-95
	1.243600413415304e-12,1.572175374105655e-11
	6.684936313552416e-03,-1.453214842844120e-04
	6.684936313552415e-03,-1.453214842844120e-04
	5.402751412475482e-03,2.485278123192103e-01
	6.684936313552416e+00,-1.453214842844119e-01
	1.217897209607757e+02,-3.975983196958318e+00
	1.243600413415349e-12,1.572175374105654e-11
	5.402751324958114e-03,2.485278123211246e-01
	0.000000000000000e+00,0.000000000000000e+00
2		1.584893192461114e+00
	6.679703890605972e+02,-2.306458828450855e+01
	1.000000000000000e+00,0.000000000000000e+00
	0.000000000000000e+00,0.000000000000000e+00
	0.000000000000000e+00,0.000000000000000e+00
	0.000000000000000e+00,0.000000000000000e+00
	0.000000000000000e+00,0.000000000000000e+00
	1.209357042487870e+05,6.908647130313108e+03
	1.980361683652599e-04,-1.972079339828958e-05
	6.679703890605973e+01,-2.306458828450855e+00
	-5.257690654608528e-04,-1.221402919760154e-02
	6.679703782654315e+02,-2.306490091758913e+01
	-6.226511492780339e-10,2.150003582742089e-11
	2.000000000000000e-04,0.000000000000000e+00
	6.937674349415622e-01,-1.214436108548367e+01
	1.079516586626654e-02,3.126330805786465e-01
	-1.963831634740100e-12,-1.972079339828957e-11
	-1.276779963512803e+02,4.890327539453788e+00
	6.048524141782649e+00,3.453742016875765e-01
	-6.697178760276215e+00,-8.175655185370712e-02
	-1.963831634740100e-12,-1.972079339828957e-11
	-6.697178760276215e+00,-8.175655185370712e-02
	-6.697178760276214e+00,-8.175655185370712e-02
	6.697178760276214e+00,8.175655185370712e-02
	0.000000000000000e+00,0.000000000000000e+00
	-7.242972964029362e-94,2.504701739554828e-95
	1.963831634740085e-12,1.972079339828957e-11
	6.679703890605973e-03,-2.306458828450855e-04
	6.679703890605972e-03,-2.306458828450855e-04
	1.079516573554429e-02,3.126330805827138e-01
	6.679703890605972e+00,-2.306458828450855e-01
	1.216294722094977e+02,-5.235701741141364e+00
	1.963831634740119e-12,1.972079339828957e-11
	1.079516586626654e-02,3.126330805786464e-01
	0.000000000000000e+00,0.000000000000000e+00
3		1.995262314968880e+00
	6.671277583139758e+02,-3.279191358588815e+01
	1.000000000000000e+00,0.000000000000000e+00
	0.000000000000000e+00,0.000000000000000e+00
	0.000000000000000e+00,0.000000000000000e+00
	0.000000000000000e+00,0.000000000000000e+00
	0.000000000000000e+00,0.000000000000000e+00
	1.212042110154359e+05,2.904362208350035e+03
	1.969053099075115e-04,-2.468523671607714e-05
	6.671277583139759e+01,-3.279191358588815e+00
	-5.395125704260181e-04,-9.686506325714980e-03
	6.671277389920820e+02,-3.279230667111767e+01
	-9.855906826175887e-10,4.844618208422052e-11
	2.000000000000000e-04,0.000000000000000e+00
	2.316713648003591e-01,-9.668026729020205e+00
	1.932189390534842e-02,3.930852295136721e-01
	-3.094690092488504e-12,-2.468523671607714e-11
	-1.274978302570243e+02,6.618519707830735e+00
	6.061947337275499e+00,1.451351263331082e-01
	-6.697270754617980e+00,-6.483817451943628e-02
	-3.094690092488504e-12,-2.468523671607714e-11
	-6.697270754617980e+00,-6.483817451943628e-02
	-6.697270754617979e+00,-6.483817451943628e-02
	6.697270754617979e+00,6.483817451943628e-02
	0.000000000000000e+00,0.000000000000000e+00
	-7.233822405299110e-94,3.561041800909637e-95
	3.094690092488505e-12,2.468523671607714e-11
	6.671277583139759e-03,-3.279191358588816e-04
	6.671277583139758e-03,-3.279191358588816e-04
	1.932189388753613e-02,3.930852295184195e-01
	6.671277583139759e+00,-3.279191358588815e-01
	1.214358829197488e+02,-6.763654834163844e+00
	3.094690092488515e-12,2.468523671607713e-11
	1.932189390534841e-02,3.930852295136720e-01
	0.000000000000000e+00,0.000000000000000e+00
4		2.511886431509581e+00
	6.657875076328099e+02,-4.420394887008368e+01
	1.000000000000000e+00,0.000000000000000e+00
	0.000000000000000e+00,0.000000000000000e+00
	0.000000000000000e+00,0.000000000000000e+00
	0.000000000000000e+00,0.000000000000000e+00
	0.000000000000000e+00,0.000000000000000e+00
	1.212288632998017e+05,-9.572653053793747e+02
	1.951392381694259e-04,-3.079813891359139e-05
	6.657875076328099e+01,-4.420394887008368e+00
	-5.473356729488401e-04,-7.677305603387238e-03
	6.657874748426415e+02,-4.420444274088100e+01
	-1.558917782416880e-09,1.035031364429637e-10
	2.000000000000000e-04,0.000000000000000e+00
	-6.065253644003479e-02,-7.681148592012962e+00
	3.279016834473819e-02,4.938707973281948e-01
	-4.860761830574137e-12,-3.079813891359139e-11
	-1.272313878539022e+02,8.686381561177319e+00
	6.063176543204799e+00,-4.797534109058304e-02
	-6.697323119802041e+00,-5.138926913514668e-02
	-4.860761830574137e-12,-3.079813891359139e-11
	-6.697323119802041e+00,-5.138926913514668e-02
	-6.697323119802041e+00,-5.138926913514668e-02
	6.697323119802041e+00,5.138926913514668e-02
	0.000000000000000e+00,0.000000000000000e+00
	-7.219267936903026e-94,4.800333145528350e-95
	4.860761830574134e-12,3.079813891359139e-11
	6.657875076328100e-03,-4.420394887008368e-04
	6.657875076328101e-03,-4.420394887008368e-04
	3.279016846136074e-02,4.938707973209944e-01
	6.657875076328099e+00,-4.420394887008368e-01
	1.211682113106974e+02,-8.638406220086733e+00
	4.860761830574143e-12,3.079813891359138e-11
	3.279016834473819e-02,4.938707973281947e-01
	0.000000000000000e+00,0.000000000000000e+00
5		3.162277660168380e+00
	6.636687630051291e+02,-5.785034677564465e+01
	1.000000000000000e+00,0.000000000000000e+00
	0.000000000000000e+00,0.000000000000000e+00
	0.000000000000000e+00,0.000000000000000e+00
	0.000000000000000e+00,0.000000000000000e+00
	0.000000000000000e+00,0.000000000000000e+00
	1.210149454360042e+05,-4.859918666713223e+03
	1.924041871508307e-04,-3.822912759917323e-05
	6.636687630051291e+01,-5.785034677564465e+00
	-5.511300106181385e-04,-6.078276582003080e-03
	6.636687089809290e+02,-5.785096654352930e+01
	-2.462855501753954e-09,2.146832739069098e-10
	2.000000000000000e-04,0.000000000000000e+00
	-2.445955714726942e-01,-6.090586884399518e+00
	5.402420013873273e-02,6.197678846523879e-01
	-7.595812849169287e-12,-3.822912759917323e-11
	-1.268228256776778e+02,1.119364223782282e+01
	6.052475262016293e+00,-2.431427649866595e-01
	-6.697348517806204e+00,-4.068591342939414e-02
	-7.595812849169287e-12,-3.822912759917323e-11
	-6.697348517806204e+00,-4.068591342939414e-02
	-6.697348517806205e+00,-4.068591342939414e-02
	6.697348517806205e+00,4.068591342939414e-02
	0.000000000000000e+00,0.000000000000000e+00
	-7.196259404129046e-94,6.282265367820528e-95
	7.595812849169292e-12,3.822912759917323e-11
	6.636687630051292e-03,-5.785034677564465e-04
	6.636687630051291e-03,-5.785034677564465e-04
	5.402420015343523e-02,6.197678846504573e-01
	6.636687630051291e+00,-5.785034677564465e-01
	1.207703504156615e+02,-1.095049947283616e+01
	7.595812849169291e-12,3.822912759917323e-11
	5.402420013873272e-02,6.197678846523880e-01
	0.000000000000000e+00,0.000000000000000e+00
6		3.981071705534974e+00
	6.603348253018017e+02,-7.434238424841016e+01
	1.000000000000000e+00,0.000000000000000e+00
	0.000000000000000e+00,0.000000000000000e+00
	0.000000000000000e+00,0.000000000000000e+00
	0.000000000000000e+00,0.000000000000000e+00
	0.000000000000000e+00,0.000000000000000e+00
	1.205193861098078e+05,-8.984776220917658e+03
	1.882230573495618e-04,-4.708176028883755e-05
	6.603348253018018e+01,-7.434238424841016e+00
	-5.518105570141609e-04,-4.803753936335250e-03
	6.603347379003299e+02,-7.434316057036936e+01
	-3.883754190916914e-09,4.372487843807266e-10
	2.000000000000000e-04,0.000000000000000e+00
	-3.591924208760820e-01,-4.818113700120465e+00
	8.740147194329857e-02,7.763219592087567e-01
	-1.177694265043826e-11,-4.708176028883755e-11
	-1.261878830582097e+02,1.425231273724134e+01
	6.027688817467397e+00,-4.494276199571509e-01
	-6.697353073152013e+00,-3.215469288918717e-02
	-1.177694265043826e-11,-4.708176028883755e-11
	-6.697353073152013e+00,-3.215469288918717e-02
	-6.697353073152013e+00,-3.215469288918717e-02
	6.697353073152013e+00,3.215469288918717e-02
	0.000000000000000e+00,0.000000000000000e+00
	-7.160054467530633e-94,8.073220161259597e-95
	1.177694265043825e-11,4.708176028883755e-11
	6.603348253018018e-03,-7.434238424841017e-04
	6.603348253018017e-03,-7.434238424841016e-04
	8.740147188746050e-02,7.763219592078485e-01
	6.603348253018018e+00,-7.434238424841015e-01
	1.201601942407423e+02,-1.380288511728419e+01
	1.177694265043824e-11,4.708176028883753e-11
	8.740147194329854e-02,7.763219592087567e-01
	0.000000000000000e+00,0.000000000000000e+00
7		5.011872336272725e+00
	6.551168469600411e+02,-9.433246368971405e+01
	1.000000000000000e+00,0.000000000000000e+00
	0.000000000000000e+00,0.000000000000000e+00
	0.000000000000000e+00,0.000000000000000e+00
	0.000000000000000e+00,0.000000000000000e+00
	0.000000000000000e+00,0.000000000000000e+00
	1.196441433148653e+05,-1.350777814209849e+04
	1.819562532803895e-04,-5.729897510636896e-05
	6.551168469600411e+01,-9.433246368971405e+00
	-5.495985082489641e-04,-3.785748429603601e-03
	6.551167073414127e+02,-9.433343329818631e+01
	-6.106695506469046e-09,8.793327154939221e-10
	2.000000000000000e-04,0.000000000000000e+00
	-4.289472905013902e-01,-3.799369902184815e+00
	1.396186284319408e-01,9.696084722445401e-01
	-1.804374671961056e-11,-5.729897510636896e-11
	-1.251991099823125e+02,1.798277283434897e+01
	5.983913408350139e+00,-6.756285758140971e-01
	-6.697338266450911e+00,-2.534051071785184e-02
	-1.804374671961056e-11,-5.729897510636896e-11
	-6.697338266450911e+00,-2.534051071785184e-02
	-6.697338266450911e+00,-2.534051071785184e-02
	6.697338266450911e+00,2.534051071785184e-02
	0.000000000000000e+00,0.000000000000000e+00
	-7.103389768953093e-94,1.024404524310605e-94
	1.804374671961054e-11,5.729897510636896e-11
	6.551168469600411e-03,-9.433246368971405e-04
	6.551168469600412e-03,-9.433246368971404e-04
	1.396186283955103e-01,9.696084722605747e-01
	6.551168469600412e+00,-9.433246368971405e-01
	1.192151965739624e+02,-1.730714425853488e+01
	1.804374671961055e-11,5.729897510636896e-11
	1.396186284319408e-01,9.696084722445398e-01
	0.000000000000000e+00,0.000000000000000e+00
8		6.309573444801935e+00
	6.470124479393412e+02,-1.184497431429875e+02
	1.000000000000000e+00,0.000000000000000e+00
	0.000000000000000e+00,0.000000000000000e+00
	0.000000000000000e+00,0.000000000000000e+00
	0.000000000000000e+00,0.000000000000000e+00
	0.000000000000000e+00,0.000000000000000e+00
	1.182225829801898e+05,-1.858966600837333e+04
	1.728359880188885e-04,-6.851947788265749e-05
	6.470124479393412e+01,-1.184497431429875e+01
	-5.441336046786457e-04,-2.970260827029204e-03
	6.470122272322587e+02,-1.184509487068308e+02
	-9.558727443588068e-09,1.749951989263945e-09
	2.000000000000000e-04,0.000000000000000e+00
	-4.689123264530253e-01,-2.982088839696702e+00
	2.207070824211597e-01,1.205563843280497e+00
	-2.716401198111151e-11,-6.851947788265749e-11
	-1.236664859799114e+02,2.250153619057263e+01
	5.912814782041043e+00,-9.297843127634245e-01
	-6.697301686247533e+00,-1.988191442769223e-02
	-2.716401198111151e-11,-6.851947788265749e-11
	-6.697301686247533e+00,-1.988191442769223e-02
	-6.697301686247534e+00,-1.988191442769223e-02
	6.697301686247534e+00,1.988191442769223e-02
	0.000000000000000e+00,0.000000000000000e+00
	-7.015379950287361e-94,1.286306410677753e-94
	2.716401198111151e-11,6.851947788265749e-11
	6.470124479393413e-03,-1.184497431429875e-03
	6.470124479393412e-03,-1.184497431429875e-03
	2.207070824624680e-01,1.205563843271307e+00
	6.470124479393412e+00,-1.184497431429875e+00
	1.177536711978704e+02,-2.157175187780920e+01
	2.716401198111152e-11,6.851947788265749e-11
	2.207070824211597e-01,1.205563843280496e+00
	0.000000000000000e+00,0.000000000000000e+00
9		7.943282347242818e+00
	6.345699031979916e+02,-1.471563928349979e+02
	1.000000000000000e+00,0.000000000000000e+00
	0.000000000000000e+00,0.000000000000000e+00
	0.000000000000000e+00,0.000000000000000e+00
	0.000000000000000e+00,0.000000000000000e+00
	0.000000000000000e+00,0.000000000000000e+00
	1.160015861674930e+05,-2.435180014191884e+04
	1.601163116450862e-04,-7.991263400858812e-05
	6.345699031979916e+01,-1.471563928349979e+01
	-5.344926352703993e-04,-2.314480310819560e-03
	6.345695580055698e+02,-1.471578813628332e+02
	-1.485822136275476e-08,3.445649651765971e-09
	2.000000000000000e-04,0.000000000000000e+00
	-4.879228545560404e-01,-2.324256538171842e+00
	3.451924218907903e-01,1.488527835257452e+00
	-3.988368835491382e-11,-7.991263400858812e-11
	-1.213153971472773e+02,2.789401838855249e+01
	5.801733299847654e+00,-1.217964022942109e+00
	-6.697237152881631e+00,-1.549234298400575e-02
	-3.988368835491382e-11,-7.991263400858812e-11
	-6.697237152881631e+00,-1.549234298400575e-02
	-6.697237152881631e+00,-1.549234298400575e-02
	6.697237152881631e+00,1.549234298400575e-02
	0.000000000000000e+00,0.000000000000000e+00
	-6.880259985977921e-94,1.598046618365148e-94
	3.988368835491381e-11,7.991263400858812e-11
	6.345699031979917e-03,-1.471563928349979e-03
	6.345699031979917e-03,-1.471563928349979e-03
	3.451924218325075e-01,1.488527835249442e+00
	6.345699031979916e+00,-1.471563928349979e+00
	1.155136638474297e+02,-2.667605436561037e+01
	3.988368835491380e-11,7.991263400858811e-11
	3.451924218907903e-01,1.488527835257452e+00
	0.000000000000000e+00,0.000000000000000e+00
10		1.000000000000001e+01
	6.158006268307230e+02,-1.804766419616818e+02
	1.000000000000000e+00,0.000000000000000e+00
	0.000000000000000e+00,0.000000000000000e+00
	0.000000000000000e+00,0.000000000000000e+00
	0.000000000000000e+00,0.000000000000000e+00
	0.000000000000000e+00,0.000000000000000e+00
	1.126276770553261e+05,-3.082886146333305e+04
	1.433913600649789e-04,-9.009544867367647e-05
	6.158006268307230e+01,-1.804766419616818e+01
	-5.191854647806446e-04,-1.784716120111928e-03
	6.158000938603057e+02,-1.804784604791497e+02
	-2.285216447109442e-08,6.697503789753063e-09
	2.000000000000000e-04,0.000000000000000e+00
	-4.906565407738302e-01,-1.792525161494372e+00
	5.329704172579508e-01,1.818517467961832e+00
	-5.660863993502110e-11,-9.009544867367647e-11
	-1.177700111473863e+02,3.416328665424650e+01
	5.632990113648578e+00,-1.541901814135190e+00
	-6.697134691895364e+00,-1.194628190726206e-02
	-5.660863993502110e-11,-9.009544867367647e-11
	-6.697134691895364e+00,-1.194628190726206e-02
	-6.697134691895363e+00,-1.194628190726206e-02
	6.697134691895363e+00,1.194628190726206e-02
	0.000000000000000e+00,0.000000000000000e+00
	-6.676434803462705e-94,1.959888264617553e-94
	5.660863993502111e-11,9.009544867367647e-11
	6.158006268307230e-03,-1.804766419616818e-03
	6.158006268307231e-03,-1.804766419616818e-03
	5.329704173391292e-01,1.818517467938818e+00
	6.158006268307230e+00,-1.804766419616818e+00
	1.121370210337378e+02,-3.262138484011130e+01
	5.660863993502112e-11,9.009544867367645e-11
	5.329704172579507e-01,1.818517467961832e+00
	0.000000000000000e+00,0.000000000000000e+00
11		1.258925411794168e+01
	5.882255957364304e+02,-2.175615125876774e+02
	1.000000000000000e+00,0.000000000000000e+00
	0.000000000000000e+00,0.000000000000000e+00
	0.000000000000000e+00,0.000000000000000e+00
	0.000000000000000e+00,0.000000000000000e+00
	0.000000000000000e+00,0.000000000000000e+00
	1.076566436830813e+05,-3.789164570539088e+04
	1.230246279117199e-04,-9.731323912770866e-05
	5.882255957364304e+01,-2.175615125876774e+01
	-4.962370080081263e-04,-1.354952944206046e-03
	5.882247868935609e+02,-2.175636994480120e+02
	-3.459640013312199e-08,1.279599392656671e-08
	2.000000000000000e-04,0.000000000000000e+00
	-4.790309611478624e-01,-1.361008914213992e+00
	8.088428695249562e-01,2.186860334530972e+00
	-7.697537208828009e-11,-9.731323912770866e-11
	-1.125619815393045e+02,4.114778857822253e+01
	5.384368321134107e+00,-1.895135313570601e+00
	-6.696981082741027e+00,-9.069593567376424e-03
	-7.697537208828009e-11,-9.731323912770866e-11
	-6.696981082741027e+00,-9.069593567376424e-03
	-6.696981082741028e+00,-9.069593567376424e-03
	6.696981082741028e+00,9.069593567376424e-03
	0.000000000000000e+00,0.000000000000000e+00
	-6.376983421551228e-94,2.362611863332232e-94
	7.697537208828009e-11,9.731323912770866e-11
	5.882255957364304e-03,-2.175615125876774e-03
	5.882255957364304e-03,-2.175615125876774e-03
	8.088428694463801e-01,2.186860334575158e+00
	5.882255957364304e+00,-2.175615125876774e+00
	1.071776132181704e+02,-3.925265326465193e+01
	7.697537208828012e-11,9.731323912770866e-11
	8.088428695249561e-01,2.186860334530971e+00
	0.000000000000000e+00,0.000000000000000e+00
12		1.584893192461115e+01
	5.492454440903481e+02,-2.561357315211088e+02
	1.000000000000000e+00,0.000000000000000e+00
	0.000000000000000e+00,0.000000000000000e+00
	0.000000000000000e+00,0.000000000000000e+00
	0.000000000000000e+00,0.000000000000000e+00
	0.000000000000000e+00,0.000000000000000e+00
	1.006211827123169e+05,-4.514833550247429e+04
	1.004190983448342e-04,-9.999912177902942e-05
	5.492454440903481e+01,-2.561357315211088e+01
	-4.635262994823851e-04,-1.005884886865002e-03
	5.492442452751150e+02,-2.561383021728323e+02
	-5.119801292304623e-08,2.387603004955195e-08
	2.000000000000000e-04,0.000000000000000e+00
	-4.533794858655650e-01,-1.010437722766824e+00
	1.198815233061851e+00,2.570651723392227e+00
	-9.958090165516577e-11,-9.999912177902941e-11
	-1.052002998349964e+02,4.841684008518769e+01
	5.032496145018722e+00,-2.258067865831468e+00
	-6.696762128398076e+00,-6.733050869731657e-03
	-9.958090165516577e-11,-9.999912177902941e-11
	-6.696762128398076e+00,-6.733050869731657e-03
	-6.696762128398075e+00,-6.733050869731657e-03
	6.696762128398075e+00,6.733050869731657e-03
	0.000000000000000e+00,0.000000000000000e+00
	-5.953677995797631e-94,2.781509057909200e-94
	9.958090165516576e-11,9.999912177902941e-11
	5.492454440903481e-03,-2.561357315211089e-03
	5.492454440903481e-03,-2.561357315211088e-03
	1.198815233124151e+00,2.570651723431183e+00
	5.492454440903481e+00,-2.561357315211088e+00
	1.001678036899776e+02,-4.615877221935623e+01
	9.958090165516576e-11,9.999912177902943e-11
	1.198815233061851e+00,2.570651723392226e+00
	0.000000000000000e+00,0.000000000000000e+00
13		1.995262314968881e+01
	4.970427258029588e+02,-2.920898728164529e+02
	1.000000000000000e+00,0.000000000000000e+00
	0.000000000000000e+00,0.000000000000000e+00
	0.000000000000000e+00,0.000000000000000e+00
	0.000000000000000e+00,0.000000000000000e+00
	0.000000000000000e+00,0.000000000000000e+00
	9.119440028548475e+04,-5.187179285196882e+04
	7.777065402354455e-05,-9.749798037630774e-05
	4.970427258029589e+01,-2.920898728164529e+01
	-4.195651553116742e-04,-7.241247007967757e-04
	4.970410047327767e+02,-2.920928014831239e+02
	-7.343106193654661e-08,4.315274674060041e-08
	2.000000000000000e-04,0.000000000000000e+00
	-4.137627449907715e-01,-7.274251383201252e-01
	1.721070182159569e+00,2.928666671046406e+00
	-1.222293459764555e-10,-9.749798037630773e-11
	-9.534166223051082e+01,5.519354938482023e+01
	4.561024270451683e+00,-2.594332118655979e+00
	-6.696467867470351e+00,-4.847044140099747e-03
	-1.222293459764555e-10,-9.749798037630773e-11
	-6.696467867470351e+00,-4.847044140099747e-03
	-6.696467867470351e+00,-4.847044140099747e-03
	6.696467867470351e+00,4.847044140099747e-03
	0.000000000000000e+00,0.000000000000000e+00
	-5.386781948527909e-94,3.171953487854364e-94
	1.222293459764554e-10,9.749798037630773e-11
	4.970427258029588e-03,-2.920898728164529e-03
	4.970427258029588e-03,-2.920898728164529e-03
	1.721070182156836e+00,2.928666671039082e+00
	4.970427258029589e+00,-2.920898728164529e+00
	9.078063796005911e+01,-5.259921726616424e+01
	1.222293459764555e-10,9.749798037630773e-11
	1.721070182159569e+00,2.928666671046407e+00
	0.000000000000000e+00,0.000000000000000e+00
14		2.511886431509582e+01
	4.319725935418060e+02,-3.197736308712203e+02
	1.000000000000000e+00,0.000000000000000e+00
	0.000000000000000e+00,0.000000000000000e+00
	0.000000000000000e+00,0.000000000000000e+00
	0.000000000000000e+00,0.000000000000000e+00
	0.000000000000000e+00,0.000000000000000e+00
	7.944136967458267e+04,-5.705333240601446e+04
	5.729149167470210e-05,-9.042114418999489e-05
	4.319725935418060e+01,-3.197736308712204e+01
	-3.646832804626561e-04,-5.010558202860308e-04
	4.319702214869604e+02,-3.197768351591624e+02
	-1.011442968442504e-07,7.487461294882337e-08
	2.000000000000000e-04,0.000000000000000e+00
	-3.614940420327705e-01,-5.033462727111889e-01
	2.372054845595875e+00,3.204287941999465e+00
	-1.427085083252979e-10,-9.042114418999488e-11
	-8.305308326122132e+01,6.041015761089557e+01
	3.973207263988144e+00,-2.853479433225747e+00
	-6.696100506890617e+00,-3.353897022029457e-03
	-1.427085083252979e-10,-9.042114418999488e-11
	-6.696100506890617e+00,-3.353897022029457e-03
	-6.696100506890617e+00,-3.353897022029457e-03
	6.696100506890617e+00,3.353897022029457e-03
	0.000000000000000e+00,0.000000000000000e+00
	-4.680152064407933e-94,3.472585591501162e-94
	1.427085083252979e-10,9.042114418999488e-11
	4.319725935418061e-03,-3.197736308712204e-03
	4.319725935418060e-03,-3.197736308712203e-03
	2.372054845579896e+00,3.204287942025985e+00
	4.319725935418060e+00,-3.197736308712204e+00
	7.907987599723317e+01,-5.755667817766982e+01
	1.427085083252979e-10,9.042114418999488e-11
	2.372054845595875e+00,3.204287941999464e+00
	0.000000000000000e+00,0.000000000000000e+00
15		3.162277660168382e+01
	3.577458503392716e+02,-3.335235496242261e+02
	1.000000000000000e+00,0.000000000000000e+00
	0.000000000000000e+00,0.000000000000000e+00
	0.000000000000000e+00,0.000000000000000e+00
	0.000000000000000e+00,0.000000000000000e+00
	0.000000000000000e+00,0.000000000000000e+00
	6.603306259953832e+04,-5.967935864244430e+04
	4.042166457287579e-05,-8.031451890992683e-05
	3.577458503392716e+01,-3.335235496242262e+01
	-3.020341452956814e-04,-3.308275070624316e-04
	3.577427356940785e+02,-3.335268904094045e+02
	-1.327573009270328e-07,1.237708703474651e-07
	2.000000000000000e-04,0.000000000000000e+00
	-3.003615082725040e-01,-3.323392028682171e-01
	3.114645193037264e+00,3.340785178387921e+00
	-1.595783354271242e-10,-8.031451890992683e-11
	-6.903530454133217e+01,6.299651314213607e+01
	3.302603148032215e+00,-2.984815627651066e+00
	-6.695681154915523e+00,-2.214446666059519e-03
	-1.595783354271242e-10,-8.031451890992683e-11
	-6.695681154915523e+00,-2.214446666059519e-03
	-6.695681154915524e+00,-2.214446666059519e-03
	6.695681154915524e+00,2.214446666059519e-03
	0.000000000000000e+00,0.000000000000000e+00
	-3.874085853610887e-94,3.621902999618620e-94
	1.595783354271242e-10,8.031451890992683e-11
	3.577458503392716e-03,-3.335235496242262e-03
	3.577458503392715e-03,-3.335235496242261e-03
	3.114645193022625e+00,3.340785178409078e+00
	3.577458503392716e+00,-3.335235496242261e+00
	6.573270139329996e+01,-6.001169751448501e+01
	1.595783354271242e-10,8.031451890992683e-11
	3.114645193037264e+00,3.340785178387921e+00
	0.000000000000000e+00,0.000000000000000e+00
16		3.981071705534977e+01
	2.811730764460556e+02,-3.300871788811453e+02
	1.000000000000000e+00,0.000000000000000e+00
	0.000000000000000e+00,0.000000000000000e+00
	0.000000000000000e+00,0.000000000000000e+00
	0.000000000000000e+00,0.000000000000000e+00
	0.000000000000000e+00,0.000000000000000e+00
	5.220024644917489e+04,-5.916982529173460e+04
	2.755994879979695e-05,-6.893793572563590e-05
	2.811730764460556e+01,-3.300871788811454e+01
	-2.373829009738134e-04,-2.077400263169248e-04
	2.811691957401493e+02,-3.300904844443469e+02
	-1.653694679793145e-07,1.941424900900038e-07
	2.000000000000000e-04,0.000000000000000e+00
	-2.365486190793210e-01,-2.086856983568344e-01
	3.880705906280735e+00,3.305563201586193e+00
	-1.724400512002031e-10,-6.893793572563589e-11
	-5.457446567862562e+01,6.233784089521370e+01
	2.610767611147148e+00,-2.959330112862287e+00
	-6.695248401503582e+00,-1.390540988472936e-03
	-1.724400512002031e-10,-6.893793572563589e-11
	-6.695248401503582e+00,-1.390540988472936e-03
	-6.695248401503583e+00,-1.390540988472936e-03
	6.695248401503583e+00,1.390540988472936e-03
	0.000000000000000e+00,0.000000000000000e+00
	-3.042542894304327e-94,3.584585690192678e-94
	1.724400512002031e-10,6.893793572563589e-11
	2.811730764460557e-03,-3.300871788811454e-03
	2.811730764460556e-03,-3.300871788811454e-03
	3.880705906283310e+00,3.305563201536188e+00
	2.811730764460556e+00,-3.300871788811453e+00
	5.196369806747848e+01,-5.937851078235141e+01
	1.724400512002031e-10,6.893793572563589e-11
	3.880705906280735e+00,3.305563201586193e+00
	0.000000000000000e+00,0.000000000000000e+00
17		5.011872336272729e+01
	2.099513196436770e+02,-3.103390395038821e+02
	1.000000000000000e+00,0.000000000000000e+00
	0.000000000000000e+00,0.000000000000000e+00
	0.000000000000000e+00,0.000000000000000e+00
	0.000000000000000e+00,0.000000000000000e+00
	0.000000000000000e+00,0.000000000000000e+00
	3.933369836087448e+04,-5.568864604807113e+04
	1.832083979242163e-05,-5.769328199872764e-05
	2.099513196436770e+01,-3.103390395038821e+01
	-1.772392063910538e-04,-1.243448908300193e-04
	2.099467264105666e+02,-3.103421468299899e+02
	-1.957026461980135e-07,2.892866223721462e-07
	2.000000000000000e-04,0.000000000000000e+00
	-1.768425585925192e-01,-1.249064647381432e-01
	4.593233110475236e+00,3.107326107765731e+00
	-1.816791602075784e-10,-5.769328199872763e-11
	-4.112411506295698e+01,5.859877318016184e+01
	1.967259083435823e+00,-2.785220791697465e+00
	-6.694845820094510e+00,-8.323223524702493e-04
	-1.816791602075784e-10,-5.769328199872763e-11
	-6.694845820094510e+00,-8.323223524702493e-04
	-6.694845820094509e+00,-8.323223524702493e-04
	6.694845820094509e+00,8.323223524702493e-04
	0.000000000000000e+00,0.000000000000000e+00
	-2.269109369471436e-94,3.370130533044155e-94
	1.816791602075784e-10,5.769328199872763e-11
	2.099513196436770e-03,-3.103390395038821e-03
	2.099513196436770e-03,-3.103390395038821e-03
	4.593233110483652e+00,3.107326107794961e+00
	2.099513196436770e+00,-3.103390395038821e+00
	3.915685597952117e+01,-5.581355238846439e+01
	1.816791602075784e-10,5.769328199872763e-11
	4.593233110475236e+00,3.107326107765731e+00
	0.000000000000000e+00,0.000000000000000e+00
18		6.309573444801940e+01
	1.498102230594364e+02,-2.788018026720222e+02
	1.000000000000000e+00,0.000000000000000e+00
	0.000000000000000e+00,0.000000000000000e+00
	0.000000000000000e+00,0.000000000000000e+00
	0.000000000000000e+00,0.000000000000000e+00
	0.000000000000000e+00,0.000000000000000e+00
	2.846866268578818e+04,-5.005750444225271e+04