Title: * C:\Users\mn080015\OneDrive - Qorvo\Documents\QSPICE\QSPICE_on_MWJ_SIJ\Article3\Sim1\VRM_PSRR_LineReg.qsch
Date: Wed May 10 17:34:47 2023
Plotname: AC Analysis
Plot Suggestion(s): «AC 1/V(VOUT)»
Flags: complex stepped
Abscissa: 1.000000000000000e+00 1.000000000000000e+08 dec
No. Variables: 36
No. Points: 322                  
Command: QSPICE80, Build Apr 24 2023 10:17:13
.alias freq frequency
.alias omega 2*pi*frequency
Variables:
	0	frequency	frequency
	1	V(vout)	voltage
	2	V(n07)	voltage
	3	V(n01)	voltage
	4	V(n03)	voltage
	5	V(n02)	voltage
	6	V(vin)	voltage
	7	V(n05)	voltage
	8	V(n06)	voltage
	9	V(fb)	voltage
	10	V(n08)	voltage
	11	V(ref)	voltage
	12	V(n04)	voltage
	13	V(n09)	voltage
	14	I(EBUF)	current
	15	I(ELINE)	current
	16	I(EA)	current
	17	I(VSINE)	current
	18	I(VIN)	current
	19	I(VREF)	current
	20	I(VAC)	current
	21	I(L2)	current
	22	Id(M_PMOS)	current
	23	Is(M_PMOS)	current
	24	Ig(M_PMOS)	current
	25	Ib(M_PMOS)	current
	26	I(RBW)	current
	27	I(R2)	current
	28	I(RBW2)	current
	29	I(RG)	current
	30	I(RFB)	current
	31	I(RLOAD)	current
	32	I(CBW)	current
	33	I(CBW2)	current
	34	I(COUT)	current
	35	line	parameter
Values:
0		1.000000000000000e+00
	3.333296785967832e-03,4.602521324059694e-07
	1.000000000000000e+00,0.000000000000000e+00
	0.000000000000000e+00,0.000000000000000e+00
	0.000000000000000e+00,0.000000000000000e+00
	9.999890357562478e-01,-1.529216183855653e-07
	1.000000000000000e+00,0.000000000000000e+00
	3.333296786597669e-03,4.556445136992811e-07
	-2.895052215894956e-15,-3.957387361405826e-19
	3.333296785967832e-04,4.602521324059694e-08
	9.999890357903496e-01,1.380756397217908e-04
	0.000000000000000e+00,0.000000000000000e+00
	0.000000000000000e+00,0.000000000000000e+00
	9.999890357562478e-01,-1.529216183855653e-07
	0.000000000000000e+00,0.000000000000000e+00
	0.000000000000000e+00,0.000000000000000e+00
	-3.410196997293176e-17,-1.382285613401764e-10
	-3.336623784333526e-05,-4.653689945022635e-07
	-3.336623784333526e-05,-4.653689945022635e-07
	0.000000000000000e+00,0.000000000000000e+00
	-3.336623784333526e-05,-4.653689945022635e-07
	-6.298377602971299e-11,4.607618706688270e-07
	-3.336623784345584e-05,-4.653689945022635e-07
	3.336623784345584e-05,4.653689945022635e-07
	0.000000000000000e+00,0.000000000000000e+00
	1.359831607237124e-96,-6.279585692244400e-103
	3.410183246899123e-17,1.382285613401764e-10
	-6.298373281254932e-11,4.607618706688298e-07
	0.000000000000000e+00,0.000000000000000e+00
	3.333296785967832e-08,4.602521324059695e-12
	3.333296785967832e-08,4.602521324059694e-12
	3.333296785967832e-05,4.602521324059694e-09
	2.113838904714555e-17,1.382285611696954e-10
	0.000000000000000e+00,0.000000000000000e+00
	-6.298377602971299e-11,4.607618706688271e-07
	0.000000000000000e+00,0.000000000000000e+00
1		1.122018454301963e+00
	3.333296786024675e-03,5.164113856537256e-07
	1.000000000000000e+00,0.000000000000000e+00
	0.000000000000000e+00,0.000000000000000e+00
	0.000000000000000e+00,0.000000000000000e+00
	9.999890357616065e-01,-1.715808779015338e-07
	1.000000000000000e+00,0.000000000000000e+00
	3.333296786817594e-03,5.112415524340920e-07
	-3.644654803302459e-15,-5.589958222059226e-19
	3.333296786024676e-04,5.164113856537256e-08
	9.999890358074027e-01,1.549234156961177e-04
	0.000000000000000e+00,0.000000000000000e+00
	0.000000000000000e+00,0.000000000000000e+00
	9.999890357616065e-01,-1.715808779015338e-07
	0.000000000000000e+00,0.000000000000000e+00
	0.000000000000000e+00,0.000000000000000e+00
	-4.579631860096144e-17,-1.550949965740192e-10
	-3.336622153593538e-05,-5.221525999255939e-07
	-3.336622153593538e-05,-5.221525999255939e-07
	0.000000000000000e+00,0.000000000000000e+00
	-3.336622153593538e-05,-5.221525999255939e-07
	-7.929187611013000e-11,5.169833219633444e-07
	-3.336622153589169e-05,-5.221525999255939e-07
	3.336622153589169e-05,5.221525999255939e-07
	0.000000000000000e+00,0.000000000000000e+00
	1.359831607237047e-96,-7.045811024733843e-103
	4.579625567657785e-17,1.550949965740192e-10
	-7.929186821020728e-11,5.169833219633541e-07
	0.000000000000000e+00,0.000000000000000e+00
	3.333296786024676e-08,5.164113856537256e-12
	3.333296786024676e-08,5.164113856537256e-12
	3.333296786024675e-05,5.164113856537256e-09
	2.661164944128460e-17,1.550949965448372e-10
	0.000000000000000e+00,0.000000000000000e+00
	-7.929187611013000e-11,5.169833219633443e-07
	0.000000000000000e+00,0.000000000000000e+00
2		1.258925411794167e+00
	3.333296786024675e-03,5.794231050515464e-07
	1.000000000000000e+00,0.000000000000000e+00
	0.000000000000000e+00,0.000000000000000e+00
	0.000000000000000e+00,0.000000000000000e+00
	9.999890357683529e-01,-1.925169114264103e-07
	1.000000000000000e+00,0.000000000000000e+00
	3.333296787022901e-03,5.736224567730955e-07
	-4.588348549379047e-15,-7.896025867661410e-19
	3.333296786024676e-04,5.794231050515464e-08
	9.999890358074027e-01,1.738269315154639e-04
	0.000000000000000e+00,0.000000000000000e+00
	0.000000000000000e+00,0.000000000000000e+00
	9.999890357683529e-01,-1.925169114264103e-07
	0.000000000000000e+00,0.000000000000000e+00
	0.000000000000000e+00,0.000000000000000e+00
	-3.904991293431775e-17,-1.740194484268903e-10
	-3.336620100524712e-05,-5.858648531256106e-07
	-3.336620100524712e-05,-5.858648531256106e-07
	0.000000000000000e+00,0.000000000000000e+00
	-3.336620100524712e-05,-5.858648531256106e-07
	-9.982255786137492e-11,5.800648278450980e-07
	-3.336620100539586e-05,-5.858648531256106e-07
	3.336620100539586e-05,5.858648531256106e-07
	0.000000000000000e+00,0.000000000000000e+00
	1.359831607237047e-96,-7.905529999865619e-103
	3.904987444514063e-17,1.740194484268903e-10
	-9.982258075691419e-11,5.800648278450892e-07
	0.000000000000000e+00,0.000000000000000e+00
	3.333296786024676e-08,5.794231050515464e-12
	3.333296786024676e-08,5.794231050515464e-12
	3.333296786024675e-05,5.794231050515464e-09
	3.350207603780195e-17,1.740194482943806e-10
	0.000000000000000e+00,0.000000000000000e+00
	-9.982255786137493e-11,5.800648278450980e-07
	0.000000000000000e+00,0.000000000000000e+00
3		1.412537544622754e+00
	3.333296786081519e-03,6.501234173228454e-07
	1.000000000000000e+00,0.000000000000000e+00
	0.000000000000000e+00,0.000000000000000e+00
	0.000000000000000e+00,0.000000000000000e+00
	9.999890357768459e-01,-2.160075274065809e-07
	1.000000000000000e+00,0.000000000000000e+00
	3.333296787338210e-03,6.436149829068904e-07
	-5.776388587530654e-15,-1.115343300356538e-18
	3.333296786081519e-04,6.501234173228454e-08
	9.999890358244558e-01,1.950370251968536e-04
	0.000000000000000e+00,0.000000000000000e+00
	0.000000000000000e+00,0.000000000000000e+00
	9.999890357768459e-01,-2.160075274065809e-07
	0.000000000000000e+00,0.000000000000000e+00
	0.000000000000000e+00,0.000000000000000e+00
	-4.760981614103290e-17,-1.952530327242602e-10
	-3.336617515925511e-05,-6.573511769975446e-07
	-3.336617515925511e-05,-6.573511769975446e-07
	0.000000000000000e+00,0.000000000000000e+00
	-3.336617515925511e-05,-6.573511769975446e-07
	-1.256691548992276e-10,6.508434415954889e-07
	-3.336617515932402e-05,-6.573511769975446e-07
	3.336617515932402e-05,6.573511769975446e-07
	0.000000000000000e+00,0.000000000000000e+00
	1.359831607236969e-96,-8.870150559156052e-103
	4.760980498730305e-17,1.952530327242602e-10
	-1.256691365553175e-10,6.508434415954965e-07
	0.000000000000000e+00,0.000000000000000e+00
	3.333296786081520e-08,6.501234173228454e-12
	3.333296786081519e-08,6.501234173228454e-12
	3.333296786081519e-05,6.501234173228454e-09
	4.217660917963982e-17,1.952530323953996e-10
	0.000000000000000e+00,0.000000000000000e+00
	-1.256691548992276e-10,6.508434415954889e-07
	0.000000000000000e+00,0.000000000000000e+00
4		1.584893192461113e+00
	3.333296786195206e-03,7.294504706933935e-07
	1.000000000000000e+00,0.000000000000000e+00
	0.000000000000000e+00,0.000000000000000e+00
	0.000000000000000e+00,0.000000000000000e+00
	9.999890357875381e-01,-2.423644320445617e-07
	1.000000000000000e+00,0.000000000000000e+00
	3.333296787777286e-03,7.221478871691129e-07
	-7.272042382201323e-15,-1.575464284648522e-18
	3.333296786195206e-04,7.294504706933936e-08
	9.999890358585618e-01,2.188351412080181e-04
	0.000000000000000e+00,0.000000000000000e+00
	0.000000000000000e+00,0.000000000000000e+00
	9.999890357875381e-01,-2.423644320445617e-07
	0.000000000000000e+00,0.000000000000000e+00
	0.000000000000000e+00,0.000000000000000e+00
	-7.102371262727308e-17,-2.190775056400626e-10
	-3.336614262128279e-05,-7.375601516282169e-07
	-3.336614262128279e-05,-7.375601516282169e-07
	0.000000000000000e+00,0.000000000000000e+00
	-3.336614262128279e-05,-7.375601516282169e-07
	-1.582080923555367e-10,7.302583524280612e-07
	-3.336614262122817e-05,-7.375601516282169e-07
	3.336614262122817e-05,7.375601516282169e-07
	0.000000000000000e+00,0.000000000000000e+00
	1.359831607236814e-96,-9.952472604574001e-103
	7.102374244283283e-17,2.190775056400626e-10
	-1.582080820516918e-10,7.302583524280643e-07
	0.000000000000000e+00,0.000000000000000e+00
	3.333296786195206e-08,7.294504706933936e-12
	3.333296786195206e-08,7.294504706933936e-12
	3.333296786195205e-05,7.294504706933935e-09
	5.309719938901193e-17,2.190775056083999e-10
	0.000000000000000e+00,0.000000000000000e+00
	-1.582080923555367e-10,7.302583524280612e-07
	0.000000000000000e+00,0.000000000000000e+00
5		1.778279410038922e+00
	3.333296786195206e-03,8.184568907054768e-07
	1.000000000000000e+00,0.000000000000000e+00
	0.000000000000000e+00,0.000000000000000e+00
	0.000000000000000e+00,0.000000000000000e+00
	9.999890358009988e-01,-2.719373654591628e-07
	1.000000000000000e+00,0.000000000000000e+00
	3.333296788186928e-03,8.102632572261409e-07
	-9.154958951727692e-15,-2.225402455477759e-18
	3.333296786195206e-04,8.184568907054768e-08
	9.999890358585618e-01,2.455370672116430e-04
	0.000000000000000e+00,0.000000000000000e+00
	0.000000000000000e+00,0.000000000000000e+00
	9.999890358009988e-01,-2.719373654591628e-07
	0.000000000000000e+00,0.000000000000000e+00
	0.000000000000000e+00,0.000000000000000e+00
	-5.756308854598137e-17,-2.458090045771022e-10
	-3.336610165760590e-05,-8.275561014025386e-07
	-3.336610165760590e-05,-8.275561014025386e-07
	0.000000000000000e+00,0.000000000000000e+00
	-3.336610165760590e-05,-8.275561014025386e-07
	-1.991721881042162e-10,8.193633479335890e-07
	-3.336610165754062e-05,-8.275561014025386e-07
	3.336610165754062e-05,8.275561014025386e-07
	0.000000000000000e+00,0.000000000000000e+00
	1.359831607236814e-96,-1.116685794311442e-102
	5.756295440306758e-17,2.458090045771022e-10
	-1.991721891581033e-10,8.193633479335911e-07
	0.000000000000000e+00,0.000000000000000e+00
	3.333296786195206e-08,8.184568907054768e-12
	3.333296786195206e-08,8.184568907054768e-12
	3.333296786195205e-05,8.184568907054769e-09
	6.684540791915755e-17,2.458090042183753e-10
	0.000000000000000e+00,0.000000000000000e+00
	-1.991721881042162e-10,8.193633479335890e-07
	0.000000000000000e+00,0.000000000000000e+00
6		1.995262314968879e+00
	3.333296786365736e-03,9.183237335008698e-07
	1.000000000000000e+00,0.000000000000000e+00
	0.000000000000000e+00,0.000000000000000e+00
	0.000000000000000e+00,0.000000000000000e+00
	9.999890358179446e-01,-3.051187425183455e-07
	1.000000000000000e+00,0.000000000000000e+00
	3.333296788873166e-03,9.091303255273695e-07
	-1.152541047064346e-14,-3.143464513848576e-18
	3.333296786365736e-04,9.183237335008699e-08
	9.999890359097209e-01,2.754971200502609e-04
	0.000000000000000e+00,0.000000000000000e+00
	0.000000000000000e+00,0.000000000000000e+00
	9.999890358179446e-01,-3.051187425183455e-07
	0.000000000000000e+00,0.000000000000000e+00
	0.000000000000000e+00,0.000000000000000e+00
	-9.177623159324026e-17,-2.758022387927792e-10
	-3.336605008819049e-05,-9.285332179231017e-07
	-3.336605008819049e-05,-9.285332179231017e-07
	0.000000000000000e+00,0.000000000000000e+00
	-3.336605008819049e-05,-9.285332179231017e-07
	-2.507429284157887e-10,9.193407973500494e-07
	-3.336605008837855e-05,-9.285332179231017e-07
	3.336605008837855e-05,9.285332179231017e-07
	0.000000000000000e+00,0.000000000000000e+00
	1.359831607236582e-96,-1.252942066252929e-102
	9.177625326373117e-17,2.758022387927793e-10
	-2.507430027498536e-10,9.193407973500329e-07
	0.000000000000000e+00,0.000000000000000e+00
	3.333296786365736e-08,9.183237335008699e-12
	3.333296786365736e-08,9.183237335008698e-12
	3.333296786365736e-05,9.183237335008699e-09
	8.415337701112489e-17,2.758022389712801e-10
	0.000000000000000e+00,0.000000000000000e+00
	-2.507429284157887e-10,9.193407973500493e-07
	0.000000000000000e+00,0.000000000000000e+00
7		2.238721138568339e+00
	3.333296786479423e-03,1.030376177268977e-06
	1.000000000000000e+00,0.000000000000000e+00
	0.000000000000000e+00,0.000000000000000e+00
	0.000000000000000e+00,0.000000000000000e+00
	9.999890358392783e-01,-3.423488599413327e-07
	1.000000000000000e+00,0.000000000000000e+00
	3.333296789636090e-03,1.020061003862412e-06
	-1.450963212618557e-14,-4.440261651735088e-18
	3.333296786479423e-04,1.030376177268977e-07
	9.999890359438269e-01,3.091128531806930e-04
	0.000000000000000e+00,0.000000000000000e+00
	0.000000000000000e+00,0.000000000000000e+00
	9.999890358392783e-01,-3.423488599413327e-07
	0.000000000000000e+00,0.000000000000000e+00
	0.000000000000000e+00,0.000000000000000e+00
	-1.045486414048879e-16,-3.094552020406344e-10
	-3.336598516590072e-05,-1.041831406192683e-06
	-3.336598516590072e-05,-1.041831406192683e-06
	0.000000000000000e+00,0.000000000000000e+00
	-3.336598516590072e-05,-1.041831406192683e-06
	-3.156666448180102e-10,1.031517340656454e-06
	-3.336598516591386e-05,-1.041831406192683e-06
	3.336598516591386e-05,1.041831406192683e-06
	0.000000000000000e+00,0.000000000000000e+00
	1.359831607236426e-96,-1.405824122222758e-102
	1.045485920059264e-16,3.094552020406344e-10
	-3.156667201936747e-10,1.031517340656440e-06
	0.000000000000000e+00,0.000000000000000e+00
	3.333296786479423e-08,1.030376177268977e-11
	3.333296786479423e-08,1.030376177268977e-11
	3.333296786479423e-05,1.030376177268977e-08
	1.059428191367844e-16,3.094552018701782e-10
	0.000000000000000e+00,0.000000000000000e+00
	-3.156666448180102e-10,1.031517340656454e-06
	0.000000000000000e+00,0.000000000000000e+00
8		2.511886431509579e+00
	3.333296786706796e-03,1.156101085086902e-06
	1.000000000000000e+00,0.000000000000000e+00
	0.000000000000000e+00,0.000000000000000e+00
	0.000000000000000e+00,0.000000000000000e+00
	9.999890358661357e-01,-3.841217387778872e-07
	1.000000000000000e+00,0.000000000000000e+00
	3.333296790680804e-03,1.144527270161772e-06
	-1.826654460518569e-14,-6.272036287573868e-18
	3.333296786706797e-04,1.156101085086903e-07
	9.999890360120389e-01,3.468303255260707e-04
	0.000000000000000e+00,0.000000000000000e+00
	0.000000000000000e+00,0.000000000000000e+00
	9.999890358661357e-01,-3.841217387778872e-07
	0.000000000000000e+00,0.000000000000000e+00
	0.000000000000000e+00,0.000000000000000e+00
	-1.459031192304477e-16,-3.472144472648486e-10
	-3.336590343394619e-05,-1.168954064367920e-06
	-3.336590343394619e-05,-1.168954064367920e-06
	0.000000000000000e+00,0.000000000000000e+00
	-3.336590343394619e-05,-1.168954064367920e-06
	-3.974007605985649e-10,1.157381492513074e-06
	-3.336590343382274e-05,-1.168954064367920e-06
	3.336590343382274e-05,1.168954064367920e-06
	0.000000000000000e+00,0.000000000000000e+00
	1.359831607236116e-96,-1.577360607706286e-102
	1.459031784278864e-16,3.472144472648486e-10
	-3.974007321133621e-10,1.157381492513077e-06
	0.000000000000000e+00,0.000000000000000e+00
	3.333296786706797e-08,1.156101085086903e-11
	3.333296786706796e-08,1.156101085086902e-11
	3.333296786706796e-05,1.156101085086903e-08
	1.333741015518621e-16,3.472144472874049e-10
	0.000000000000000e+00,0.000000000000000e+00
	-3.974007605985649e-10,1.157381492513074e-06
	0.000000000000000e+00,0.000000000000000e+00
9		2.818382931264452e+00
	3.333296786877327e-03,1.297166750902079e-06
	1.000000000000000e+00,0.000000000000000e+00
	0.000000000000000e+00,0.000000000000000e+00
	0.000000000000000e+00,0.000000000000000e+00
	9.999890358999474e-01,-4.309916797617941e-07
	1.000000000000000e+00,0.000000000000000e+00
	3.333296791880306e-03,1.284180716964715e-06
	-2.299621719744784e-14,-8.859486726685294e-18
	3.333296786877327e-04,1.297166750902079e-07
	9.999890360631981e-01,3.891500252706237e-04
	0.000000000000000e+00,0.000000000000000e+00
	0.000000000000000e+00,0.000000000000000e+00
	9.999890358999474e-01,-4.309916797617941e-07
	0.000000000000000e+00,0.000000000000000e+00
	0.000000000000000e+00,0.000000000000000e+00
	-1.632505657484526e-16,-3.895810169503855e-10
	-3.336580053892035e-05,-1.311588032922100e-06
	-3.336580053892035e-05,-1.311588032922100e-06
	0.000000000000000e+00,0.000000000000000e+00
	-3.336580053892035e-05,-1.311588032922100e-06
	-5.002979155768579e-10,1.298603393736370e-06
	-3.336580053875894e-05,-1.311588032922100e-06
	3.336580053875894e-05,1.311588032922100e-06
	0.000000000000000e+00,0.000000000000000e+00
	1.359831607235884e-96,-1.769827708747016e-102
	1.632507462545618e-16,3.895810169503855e-10
	-5.002979367590976e-10,1.298603393736369e-06
	0.000000000000000e+00,0.000000000000000e+00
	3.333296786877327e-08,1.297166750902079e-11
	3.333296786877327e-08,1.297166750902079e-11
	3.333296786877326e-05,1.297166750902079e-08
	1.679080400827285e-16,3.895810174698970e-10
	0.000000000000000e+00,0.000000000000000e+00
	-5.002979155768579e-10,1.298603393736370e-06
	0.000000000000000e+00,0.000000000000000e+00
10		3.162277660168377e+00
	3.333296787218387e-03,1.455445033826663e-06
	1.000000000000000e+00,0.000000000000000e+00
	0.000000000000000e+00,0.000000000000000e+00
	0.000000000000000e+00,0.000000000000000e+00
	9.999890359425135e-01,-4.835806185765623e-07
	1.000000000000000e+00,0.000000000000000e+00
	3.333296793516766e-03,1.440874464093571e-06
	-2.895052221926990e-14,-1.251435763661857e-17
	3.333296787218388e-04,1.455445033826663e-07
	9.999890361655163e-01,4.366335101479991e-04
	0.000000000000000e+00,0.000000000000000e+00
	0.000000000000000e+00,0.000000000000000e+00
	9.999890359425135e-01,-4.835806185765623e-07
	0.000000000000000e+00,0.000000000000000e+00
	0.000000000000000e+00,0.000000000000000e+00
	-2.230025991883759e-16,-4.371170907665756e-10
	-3.336567100209464e-05,-1.471625978089962e-06
	-3.336567100209464e-05,-1.471625978089962e-06
	0.000000000000000e+00,0.000000000000000e+00
	-3.336567100209464e-05,-1.471625978089962e-06
	-6.298377598447834e-10,1.457056973309301e-06
	-3.336567100195931e-05,-1.471625978089962e-06
	3.336567100195931e-05,1.471625978089962e-06
	0.000000000000000e+00,0.000000000000000e+00
	1.359831607235418e-96,-1.985779351523878e-102
	2.230027273952828e-16,4.371170907665756e-10
	-6.298378485425360e-10,1.457056973309273e-06
	0.000000000000000e+00,0.000000000000000e+00
	3.333296787218388e-08,1.455445033826664e-11
	3.333296787218387e-08,1.455445033826663e-11
	3.333296787218387e-05,1.455445033826663e-08
	2.113836929103526e-16,4.371170910655666e-10
	0.000000000000000e+00,0.000000000000000e+00
	-6.298377598447834e-10,1.457056973309301e-06
	0.000000000000000e+00,0.000000000000000e+00
11		3.548133892335751e+00
	3.333296787559448e-03,1.633036186277081e-06
	1.000000000000000e+00,0.000000000000000e+00
	0.000000000000000e+00,0.000000000000000e+00
	0.000000000000000e+00,0.000000000000000e+00
	9.999890359961011e-01,-5.425863785074592e-07
	1.000000000000000e+00,0.000000000000000e+00
	3.333296795488635e-03,1.616687738137149e-06
	-3.644654812819309e-14,-1.767699999909196e-17
	3.333296787559448e-04,1.633036186277081e-07
	9.999890362678343e-01,4.899108558831244e-04
	0.000000000000000e+00,0.000000000000000e+00
	0.000000000000000e+00,0.000000000000000e+00
	9.999890359961011e-01,-5.425863785074592e-07
	0.000000000000000e+00,0.000000000000000e+00
	0.000000000000000e+00,0.000000000000000e+00
	-2.717332516768631e-16,-4.904534422616319e-10
	-3.336550792498727e-05,-1.651191506226404e-06
	-3.336550792498727e-05,-1.651191506226404e-06
	0.000000000000000e+00,0.000000000000000e+00
	-3.336550792498727e-05,-1.651191506226404e-06
	-7.929187607514024e-10,1.634844813993196e-06
	-3.336550792496643e-05,-1.651191506226404e-06
	3.336550792496643e-05,1.651191506226404e-06
	0.000000000000000e+00,0.000000000000000e+00
	1.359831607234953e-96,-2.228081077355573e-102
	2.717331915036425e-16,4.904534422616319e-10
	-7.929187254701597e-10,1.634844813993211e-06
	0.000000000000000e+00,0.000000000000000e+00
	3.333296787559448e-08,1.633036186277082e-11
	3.333296787559448e-08,1.633036186277082e-11
	3.333296787559448e-05,1.633036186277082e-08
	2.661162971052691e-16,4.904534428926401e-10
	0.000000000000000e+00,0.000000000000000e+00
	-7.929187607514023e-10,1.634844813993196e-06
	0.000000000000000e+00,0.000000000000000e+00
12		3.981071705534969e+00
	3.333296788014195e-03,1.832296739223693e-06
	1.000000000000000e+00,0.000000000000000e+00
	0.000000000000000e+00,0.000000000000000e+00
	0.000000000000000e+00,0.000000000000000e+00
	9.999890360635642e-01,-6.087919301941969e-07
	1.000000000000000e+00,0.000000000000000e+00
	3.333296797996451e-03,1.813953478697638e-06
	-4.588348564541189e-14,-2.496942619846549e-17
	3.333296788014195e-04,1.832296739223693e-07
	9.999890364042586e-01,5.496890217671080e-04
	0.000000000000000e+00,0.000000000000000e+00
	0.000000000000000e+00,0.000000000000000e+00
	9.999890360635642e-01,-6.087919301941969e-07
	0.000000000000000e+00,0.000000000000000e+00
	0.000000000000000e+00,0.000000000000000e+00
	-3.406944390775719e-16,-5.502978136973021e-10
	-3.336530262254556e-05,-1.852667342960244e-06
	-3.336530262254556e-05,-1.852667342960244e-06
	0.000000000000000e+00,0.000000000000000e+00
	-3.336530262254556e-05,-1.852667342960244e-06
	-9.982255783358306e-10,1.834326052605480e-06
	-3.336530262237305e-05,-1.852667342960244e-06
	3.336530262237305e-05,1.852667342960244e-06
	0.000000000000000e+00,0.000000000000000e+00
	1.359831607234332e-96,-2.499948088763258e-102
	3.406944726336291e-16,5.502978136973021e-10
	-9.982255907287074e-10,1.834326052605480e-06
	0.000000000000000e+00,0.000000000000000e+00
	3.333296788014195e-08,1.832296739223693e-11
	3.333296788014195e-08,1.832296739223693e-11
	3.333296788014195e-05,1.832296739223693e-08
	3.350205634730084e-16,5.502978139386015e-10
	0.000000000000000e+00,0.000000000000000e+00
	-9.982255783358306e-10,1.834326052605480e-06
	0.000000000000000e+00,0.000000000000000e+00
13		4.466835921509626e+00
	3.333296788525786e-03,2.055870758965739e-06
	1.000000000000000e+00,0.000000000000000e+00
	0.000000000000000e+00,0.000000000000000e+00
	0.000000000000000e+00,0.000000000000000e+00
	9.999890361484951e-01,-6.830757811535082e-07
	1.000000000000000e+00,0.000000000000000e+00
	3.333296801092702e-03,2.035289282124246e-06
	-5.776388611456383e-14,-3.527025203918745e-17
	3.333296788525786e-04,2.055870758965739e-07
	9.999890365577357e-01,6.167612276897217e-04
	0.000000000000000e+00,0.000000000000000e+00
	0.000000000000000e+00,0.000000000000000e+00
	9.999890361484951e-01,-6.830757811535082e-07
	0.000000000000000e+00,0.000000000000000e+00
	0.000000000000000e+00,0.000000000000000e+00
	-4.092405803341262e-16,-6.174443034708752e-10
	-3.336504416173725e-05,-2.078726950448375e-06
	-3.336504416173725e-05,-2.078726950448375e-06
	0.000000000000000e+00,0.000000000000000e+00
	-3.336504416173725e-05,-2.078726950448375e-06
	-1.256691549627493e-09,2.058147684149342e-06
	-3.336504416165468e-05,-2.078726950448375e-06
	3.336504416165468e-05,2.078726950448375e-06
	0.000000000000000e+00,0.000000000000000e+00
	1.359831607233634e-96,-2.804987895573180e-102
	4.092406413747085e-16,6.174443034708752e-10
	-1.256691582393610e-09,2.058147684149293e-06
	0.000000000000000e+00,0.000000000000000e+00
	3.333296788525786e-08,2.055870758965739e-11
	3.333296788525786e-08,2.055870758965739e-11
	3.333296788525786e-05,2.055870758965739e-08
	4.217658955320431e-16,6.174443026535797e-10
	0.000000000000000e+00,0.000000000000000e+00
	-1.256691549627493e-09,2.058147684149341e-06
	0.000000000000000e+00,0.000000000000000e+00
14		5.011872336272718e+00
	3.333296789264750e-03,2.306724930178916e-06
	1.000000000000000e+00,0.000000000000000e+00
	0.000000000000000e+00,0.000000000000000e+00
	0.000000000000000e+00,0.000000000000000e+00
	9.999890362554166e-01,-7.664236330445773e-07
	1.000000000000000e+00,0.000000000000000e+00
	3.333296805085560e-03,2.283632133318206e-06
	-7.272042420104458e-14,-4.982055519117692e-17
	3.333296789264750e-04,2.306724930178916e-07
	9.999890367794251e-01,6.920174790536748e-04
	0.000000000000000e+00,0.000000000000000e+00
	0.000000000000000e+00,0.000000000000000e+00
	9.999890362554166e-01,-7.664236330445773e-07
	0.000000000000000e+00,0.000000000000000e+00
	0.000000000000000e+00,0.000000000000000e+00
	-5.240086742476372e-16,-6.927839026867193e-10
	-3.336471877979363e-05,-2.332370002607779e-06
	-3.336471877979363e-05,-2.332370002607779e-06
	0.000000000000000e+00,0.000000000000000e+00
	-3.336471877979363e-05,-2.332370002607779e-06
	-1.582080925899094e-09,2.309279686070990e-06
	-3.336471877968259e-05,-2.332370002607779e-06
	3.336471877968259e-05,2.332370002607779e-06
	0.000000000000000e+00,0.000000000000000e+00
	1.359831607232626e-96,-3.147248181507200e-102
	5.240085032554020e-16,6.927839026867194e-10
	-1.582080950621179e-09,2.309279686070994e-06
	0.000000000000000e+00,0.000000000000000e+00
	3.333296789264750e-08,2.306724930178916e-11
	3.333296789264750e-08,2.306724930178916e-11
	3.333296789264751e-05,2.306724930178916e-08
	5.309717986431311e-16,6.927839021549976e-10
	0.000000000000000e+00,0.000000000000000e+00
	-1.582080925899093e-09,2.309279686070990e-06
	0.000000000000000e+00,0.000000000000000e+00
15		5.623413251903484e+00
	3.333296790231088e-03,2.588187939522868e-06
	1.000000000000000e+00,0.000000000000000e+00
	0.000000000000000e+00,0.000000000000000e+00
	0.000000000000000e+00,0.000000000000000e+00
	9.999890363900228e-01,-8.599414613730261e-07
	1.000000000000000e+00,0.000000000000000e+00
	3.333296810148307e-03,2.562277395244205e-06
	-9.154959012271294e-14,-7.037340467026274e-17
	3.333296790231088e-04,2.588187939522868e-07
	9.999890370693265e-01,7.764563818568604e-04
	0.000000000000000e+00,0.000000000000000e+00
	0.000000000000000e+00,0.000000000000000e+00
	9.999890363900228e-01,-8.599414613730261e-07
	0.000000000000000e+00,0.000000000000000e+00
	0.000000000000000e+00,0.000000000000000e+00
	-6.793039065554774e-16,-7.773163233182334e-10
	-3.336430914790967e-05,-2.616962189093255e-06
	-3.336430914790967e-05,-2.616962189093255e-06
	0.000000000000000e+00,0.000000000000000e+00
	-3.336430914790967e-05,-2.616962189093255e-06
	-1.991721880245486e-09,2.591054427866330e-06
	-3.336430914787500e-05,-2.616962189093255e-06
	3.336430914787500e-05,2.616962189093255e-06
	0.000000000000000e+00,0.000000000000000e+00
	1.359831607231308e-96,-3.531270538369051e-102
	6.793037243824073e-16,7.773163233182334e-10
	-1.991721891581033e-09,2.591054427866300e-06
	0.000000000000000e+00,0.000000000000000e+00
	3.333296790231088e-08,2.588187939522868e-11
	3.333296790231088e-08,2.588187939522868e-11
	3.333296790231088e-05,2.588187939522868e-08
	6.684538855595686e-16,7.773163231658656e-10
	0.000000000000000e+00,0.000000000000000e+00
	-1.991721880245486e-09,2.591054427866330e-06
	0.000000000000000e+00,0.000000000000000e+00
16		6.309573444801925e+00
	3.333296791367957e-03,2.903994626990425e-06
	1.000000000000000e+00,0.000000000000000e+00
	0.000000000000000e+00,0.000000000000000e+00
	0.000000000000000e+00,0.000000000000000e+00
	9.999890365594819e-01,-9.648701910919266e-07
	1.000000000000000e+00,0.000000000000000e+00
	3.333296816442249e-03,2.874922518093656e-06
	-1.152541056632664e-13,-9.940507608861487e-17
	3.333296791367957e-04,2.903994626990425e-07
	9.999890374103870e-01,8.711983880971275e-04
	0.000000000000000e+00,0.000000000000000e+00
	0.000000000000000e+00,0.000000000000000e+00
	9.999890365594819e-01,-9.648701910919266e-07
	0.000000000000000e+00,0.000000000000000e+00
	0.000000000000000e+00,0.000000000000000e+00
	-8.509051583726734e-16,-8.721632582882194e-10
	-3.336379345197926e-05,-2.936279875887327e-06
	-3.336379345197926e-05,-2.936279875887327e-06
	0.000000000000000e+00,0.000000000000000e+00
	-3.336379345197926e-05,-2.936279875887327e-06
	-2.507429284457071e-09,2.907210889676918e-06
	-3.336379345220001e-05,-2.936279875887327e-06
	3.336379345220001e-05,2.936279875887327e-06
	0.000000000000000e+00,0.000000000000000e+00
	1.359831607229757e-96,-3.962150705239659e-102
	8.509051241389897e-16,8.721632582882194e-10
	-2.507429246872972e-09,2.907210889676935e-06
	0.000000000000000e+00,0.000000000000000e+00
	3.333296791367957e-08,2.903994626990425e-11
	3.333296791367957e-08,2.903994626990425e-11
	3.333296791367957e-05,2.903994626990425e-08
	8.415335790275648e-16,8.721632595700476e-10
	0.000000000000000e+00,0.000000000000000e+00
	-2.507429284457071e-09,2.907210889676918e-06
	0.000000000000000e+00,0.000000000000000e+00
17		7.079457843841370e+00
	3.333296792732199e-03,3.258335571132420e-06
	1.000000000000000e+00,0.000000000000000e+00
	0.000000000000000e+00,0.000000000000000e+00
	0.000000000000000e+00,0.000000000000000e+00
	9.999890367728185e-01,-1.082602162985613e-06
	1.000000000000000e+00,0.000000000000000e+00
	3.333296824298863e-03,3.225716128367592e-06
	-1.450963227763886e-13,-1.404134024680514e-16
	3.333296792732199e-04,3.258335571132420e-07
	9.999890378196598e-01,9.775006713397261e-04
	0.000000000000000e+00,0.000000000000000e+00
	0.000000000000000e+00,0.000000000000000e+00
	9.999890367728185e-01,-1.082602162985613e-06
	0.000000000000000e+00,0.000000000000000e+00
	0.000000000000000e+00,0.000000000000000e+00
	-1.046841243248012e-15,-9.785832735027116e-10
	-3.336314422908160e-05,-3.294560215576076e-06
	-3.336314422908160e-05,-3.294560215576076e-06
	0.000000000000000e+00,0.000000000000000e+00
	-3.336314422908160e-05,-3.294560215576076e-06
	-3.156666452726016e-09,3.261944276482770e-06
	-3.336314422924243e-05,-3.294560215576076e-06
	3.336314422924243e-05,3.294560215576076e-06
	0.000000000000000e+00,0.000000000000000e+00
	1.359831607227895e-96,-4.445606221540834e-102
	1.046841280327726e-15,9.785832735027116e-10
	-3.156666421311183e-09,3.261944276482832e-06
	0.000000000000000e+00,0.000000000000000e+00