Title: * C:\Users\mn080015\OneDrive - Qorvo\Documents\QSPICE\QSPICE_on_MWJ_SIJ\Article3\Sim1\VRM_PSRR_LineReg.qsch
Date: Wed May 10 17:34:55 2023
Plotname: Transient Analysis
Plot Suggestion(s): «tran V(VOUT)»
Flags: real stepped
Abscissa: 0.000000000000000e+00 1.000000000000000e+01 
No. Variables: 36
No. Points: 2186                 
Command: QSPICE80, Build Apr 24 2023 10:17:13
Variables:
	0	time	time
	1	V(vout)	voltage
	2	V(n07)	voltage
	3	V(n01)	voltage
	4	V(n03)	voltage
	5	V(n02)	voltage
	6	V(vin)	voltage
	7	V(n05)	voltage
	8	V(n06)	voltage
	9	V(fb)	voltage
	10	V(n08)	voltage
	11	V(ref)	voltage
	12	V(n04)	voltage
	13	V(n09)	voltage
	14	I(EBUF)	current
	15	I(ELINE)	current
	16	I(EA)	current
	17	I(VSINE)	current
	18	I(VIN)	current
	19	I(VREF)	current
	20	I(VAC)	current
	21	I(L2)	current
	22	Id(M_PMOS)	current
	23	Is(M_PMOS)	current
	24	Ig(M_PMOS)	current
	25	Ib(M_PMOS)	current
	26	I(RBW)	current
	27	I(R2)	current
	28	I(RBW2)	current
	29	I(RG)	current
	30	I(RFB)	current
	31	I(RLOAD)	current
	32	I(CBW)	current
	33	I(CBW2)	current
	34	I(COUT)	current
	35	line	parameter
Values:
0		0.000000000000000e+00
	5.029895561604881e+00
	1.000000000000000e+01
	1.000000000000000e+01
	5.000000000000000e-01
	8.968668481479426e+00
	1.000000000000000e+01
	5.029895561604881e+00
	1.106577023553074e-28
	5.029895561604881e-01
	8.968668481479426e+00
	4.999999999999950e-01
	5.000000000000000e-01
	8.968668481479426e+00
	-5.814882802707939e-14
	-4.976318565119014e-21
	0.000000000000000e+00
	-5.034925457190347e-02
	-5.034925457190347e-02
	-4.976318565119014e-21
	-5.034925457190347e-02
	1.106577023553074e-16
	-5.042881956712790e-02
	5.042881956711790e-02
	0.000000000000000e+00
	1.000000000000000e-14
	0.000000000000000e+00
	0.000000000000000e+00
	4.996003610813204e-21
	5.029895561604882e-05
	5.029895561604882e-05
	5.029895561604882e-02
	1.973107065925473e-22
	4.999999999999950e-21
	1.106577023553074e-16
	0.000000000000000e+00
1		9.765625000000000e-07
	5.029897125140442e+00
	1.000000000000000e+01
	1.000000000000000e+01
	5.000000000000000e-01
	8.968688417753977e+00
	1.000000306796158e+01
	5.029896842981059e+00
	2.889312081255646e-08
	5.029897125140441e-01
	8.969137542147109e+00
	4.999999999999951e-01
	5.000000000000000e-01
	8.968688417753977e+00
	-5.814953284811873e-14
	-4.976318565119014e-21
	-4.491243931324814e-10
	-5.037748616084563e-02
	-5.037748616084563e-02
	-4.976318565119014e-21
	-5.037748616084563e-02
	2.821593830049096e-05
	-5.037750101752243e-02
	5.037750101751243e-02
	0.000000000000000e+00
	1.000000000000000e-14
	4.491243931319388e-10
	2.821593829693825e-05
	4.940492459581946e-21
	5.029897125140441e-05
	5.029897125140443e-05
	5.029897125140442e-02
	4.491243930852449e-10
	4.999999999999950e-21
	2.821593830060162e-05
	0.000000000000000e+00
2		9.818004329307430e-07
	5.029897053876130e+00
	1.000000000000000e+01
	1.000000000000000e+01
	5.000000000000000e-01
	8.968688519570650e+00
	1.000000308441703e+01
	5.029896774157090e+00
	-4.659061758616190e-08
	5.029897053876130e-01
	8.969116162853879e+00
	4.999999999999951e-01
	5.000000000000000e-01
	8.968688519570650e+00
	-5.814953801696285e-14
	-4.976318565119014e-21
	-4.276432832287967e-10
	-5.037724141323856e-02
	-5.037724141323856e-02
	-4.976318565119014e-21
	-5.037724141323856e-02
	2.797190245473757e-05
	-5.037724139830963e-02
	5.037724139829963e-02
	0.000000000000000e+00
	1.000000000000000e-14
	4.276432832295285e-10
	2.797190399306260e-05
	4.940492459581946e-21
	5.029897053876130e-05
	5.029897053876131e-05
	5.029897053876130e-02
	4.276432818974582e-10
	4.999999999999950e-21
	2.797190245484823e-05
	0.000000000000000e+00
3		9.922762987922289e-07
	5.029897058591148e+00
	1.000000000000000e+01
	1.000000000000000e+01
	5.000000000000000e-01
	8.968688723780314e+00
	1.000000311732793e+01
	5.029896784082469e+00
	-4.973667522278902e-08
	5.029897058591148e-01
	8.969117577359384e+00
	4.999999999999951e-01
	5.000000000000000e-01
	8.968688723780314e+00
	-5.814954543283099e-14
	-4.976318565119014e-21
	-4.288535790693954e-10
	-5.037672042427637e-02
	-5.037672042427637e-02
	-4.976318565119014e-21
	-5.037672042427637e-02
	2.745086749200709e-05
	-5.037672040934779e-02
	5.037672040933779e-02
	0.000000000000000e+00
	1.000000000000000e-14
	4.288535790699654e-10
	2.745086788991102e-05
	4.940492459581946e-21
	5.029897058591149e-05
	5.029897058591149e-05
	5.029897058591148e-02
	4.288535811194125e-10
	4.999999999999950e-21
	2.745086567312834e-05
	0.000000000000000e+00
4		1.013228030515201e-06
	5.029897072670663e+00
	1.000000000000000e+01
	1.000000000000000e+01
	5.000000000000000e-01
	8.968689135829818e+00
	1.000000318314974e+01
	5.029896808693488e+00
	-5.026555971454627e-08
	5.029897072670664e-01
	8.969121801213987e+00
	4.999999999999951e-01
	5.000000000000000e-01
	8.968689135829818e+00
	-5.814956031678473e-14
	-4.976318565119014e-21
	-4.326653841686603e-10
	-5.037566741488469e-02
	-5.037566741488469e-02
	-4.976318565119014e-21
	-5.037566741488469e-02
	2.639771719259443e-05
	-5.037566739996029e-02
	5.037566739995029e-02
	0.000000000000000e+00
	1.000000000000000e-14
	4.326653841690841e-10
	2.639771752299680e-05
	4.940492459581946e-21
	5.029897072670664e-05
	5.029897072670663e-05
	5.029897072670664e-02
	4.326653861576909e-10
	4.999999999999950e-21
	2.639771719270508e-05
	0.000000000000000e+00
5		1.055131493961144e-06
	5.029897098418599e+00
	1.000000000000000e+01
	1.000000000000000e+01
	5.000000000000000e-01
	8.968689967354628e+00
	1.000000331479335e+01
	5.029896855729652e+00
	-5.121578272593297e-08
	5.029897098418599e-01
	8.969129525594553e+00
	4.999999999999950e-01
	5.000000000000000e-01
	8.968689967354628e+00
	-5.814959042994615e-14
	-4.976318565119014e-21
	-4.395582399260601e-10
	-5.037353884970280e-02
	-5.037353884970280e-02
	-4.976318565119014e-21
	-5.037353884970280e-02
	2.426889568596380e-05
	-5.037353883477827e-02
	5.037353883476827e-02
	0.000000000000000e+00
	1.000000000000000e-14
	4.395582399254749e-10
	2.426889462725512e-05
	4.996003610813204e-21
	5.029897098418599e-05
	5.029897098418598e-05
	5.029897098418599e-02
	4.395582389392038e-10
	4.999999999999950e-21
	2.426889467441917e-05
	0.000000000000000e+00
6		1.138938420853030e-06
	5.029897136690108e+00
	1.000000000000000e+01
	1.000000000000000e+01
	5.000000000000000e-01
	8.968691662651354e+00
	1.000000357808057e+01
	5.029896937555440e+00
	-5.256454915780751e-08
	5.029897136690108e-01
	8.969141007047256e+00
	4.999999999999951e-01
	5.000000000000000e-01
	8.968691662651354e+00
	-5.814965221064049e-14
	-4.976318565119014e-21
	-4.493443959018066e-10
	-5.036918380495841e-02
	-5.036918380495841e-02
	-4.976318565119014e-21
	-5.036918380495841e-02
	1.991346698559937e-05
	-5.036918379008495e-02
	5.036918379007495e-02
	0.000000000000000e+00
	1.000000000000000e-14
	4.493443959017185e-10
	1.991346678664740e-05
	4.940492459581946e-21
	5.029897136690108e-05
	5.029897136690109e-05
	5.029897136690108e-02
	4.493443961017277e-10
	4.999999999999950e-21
	1.991346673606126e-05
	0.000000000000000e+00
7		1.306552274636804e-06
	5.029897161874939e+00
	1.000000000000000e+01
	1.000000000000000e+01
	5.000000000000000e-01
	8.968695103461947e+00
	1.000000410465503e+01
	5.029897051364277e+00
	-5.312384177003082e-08
	5.029897161874939e-01
	8.969148562496457e+00
	4.999999999999951e-01
	5.000000000000000e-01
	8.968695103461947e+00
	-5.814977880787851e-14
	-4.976318565119014e-21
	-4.534590345107509e-10
	-5.036032165652465e-02
	-5.036032165652465e-02
	-4.976318565119014e-21
	-5.036032165652465e-02
	1.105106616705598e-05
	-5.036032164172517e-02
	5.036032164171517e-02
	0.000000000000000e+00
	1.000000000000000e-14
	4.534590345102174e-10
	1.105106619547769e-05
	4.940492459581946e-21
	5.029897161874939e-05
	5.029897161874940e-05
	5.029897161874940e-02
	4.534590346646299e-10
	4.999999999999950e-21
	1.105106627000723e-05
	0.000000000000000e+00
8		1.641779982204350e-06
	5.029897031207146e+00
	1.000000000000000e+01
	1.000000000000000e+01
	5.000000000000000e-01
	8.968701631377604e+00
	1.000000515780393e+01
	5.029897087146299e+00
	-4.678778342537271e-08
	5.029897031207146e-01
	8.969109362158406e+00
	4.999999999999951e-01
	5.000000000000000e-01
	8.968701631377604e+00
	-5.815002147488260e-14
	-4.976318565119014e-21
	-4.077307808025008e-10
	-5.034367536703293e-02
	-5.034367536703293e-02
	-4.976318565119014e-21
	-5.034367536703293e-02
	-5.593915375357028e-06
	-5.034367535864267e-02
	5.034367535863267e-02
	0.000000000000000e+00
	1.000000000000000e-14
	4.077307808021402e-10
	-5.593915286539186e-06
	4.940492459581946e-21
	5.029897031207146e-05
	5.029897031207146e-05
	5.029897031207146e-02
	4.077307809062718e-10
	4.999999999999950e-21
	-5.593915227843159e-06
	0.000000000000000e+00
9		1.950383927951585e-06
	5.029896747616394e+00
	1.000000000000000e+01
	1.000000000000000e+01
	5.000000000000000e-01
	8.968706664381347e+00
	1.000000612731182e+01
	5.029896927059816e+00
	-3.432574491313289e-08
	5.029896747616392e-01
	8.969024284932630e+00
	4.999999999999951e-01
	5.000000000000000e-01
	8.968706664381347e+00
	-5.815020907668965e-14
	-4.976318565119014e-21
	-3.176205512826996e-10
	-5.033132210123775e-02
	-5.033132210123775e-02
	-4.976318565119014e-21
	-5.033132210123775e-02
	-1.794434240309783e-05
	-5.033132213614255e-02
	5.033132213613255e-02
	0.000000000000000e+00
	1.000000000000000e-14
	3.176205512822605e-10
	-1.794434227875286e-05
	4.940492459581946e-21
	5.029896747616393e-05
	5.029896747616395e-05
	5.029896747616393e-02
	3.176205514610233e-10
	4.999999999999950e-21
	-1.794434244969044e-05
	0.000000000000000e+00
10		2.357143366607578e-06
	5.029896251013985e+00
	1.000000000000000e+01
	1.000000000000000e+01
	5.000000000000000e-01
	8.968711009633459e+00
	1.000000740518428e+01
	5.029896523648318e+00
	-1.313717468143238e-08
	5.029896251013986e-01
	8.968875304210542e+00
	4.999999999999951e-01
	5.000000000000000e-01
	8.968711009633459e+00
	-5.815036726137299e-14
	-4.976318565119014e-21
	-1.642945770817289e-10
	-5.032199803914288e-02
	-5.032199803914288e-02
	-4.976318565119014e-21
	-5.032199803914288e-02
	-2.726343359427119e-05
	-5.032199829795727e-02
	5.032199829794727e-02
	0.000000000000000e+00
	1.000000000000000e-14
	1.642945770825577e-10
	-2.726343337755566e-05
	4.940492459581946e-21
	5.029896251013986e-05
	5.029896251013985e-05
	5.029896251013985e-02
	1.642945771514606e-10
	4.999999999999950e-21
	-2.726343357236349e-05
	0.000000000000000e+00
11		2.842802452119705e-06
	5.029895671518500e+00
	1.000000000000000e+01
	1.000000000000000e+01
	5.000000000000000e-01
	8.968712565428698e+00
	1.000000893092730e+01
	5.029895945012427e+00
	1.109344593963613e-08
	5.029895671518501e-01
	8.968701455564997e+00
	4.999999999999951e-01
	5.000000000000000e-01
	8.968712565428698e+00
	-5.815041056823193e-14
	-4.976318565119014e-21
	1.110986370209002e-11
	-5.032190627917082e-02
	-5.032190627917082e-02
	-4.976318565119014e-21
	-5.032190627917082e-02
	-2.734939266701986e-05
	-5.032190695381957e-02
	5.032190695380957e-02
	0.000000000000000e+00
	1.000000000000000e-14
	-1.110986370100875e-11
	-2.734939270609971e-05
	4.940492459581946e-21
	5.029895671518501e-05
	5.029895671518500e-05
	5.029895671518500e-02
	-1.110986380745026e-11
	4.999999999999950e-21
	-2.734939275485174e-05
	0.000000000000000e+00
12		3.252820721492441e-06
	5.029895327527119e+00
	1.000000000000000e+01
	1.000000000000000e+01
	5.000000000000000e-01
	8.968711348414026e+00
	1.000001021903768e+01
	5.029895524836210e+00
	2.518388497740887e-08
	5.029895327527119e-01
	8.968598258150678e+00
	4.999999999999950e-01
	5.000000000000000e-01
	8.968711348414026e+00
	-5.815034300526501e-14
	-4.976318565119014e-21
	1.130902633485301e-10
	-5.032952131936746e-02
	-5.032952131936746e-02
	-4.976318565119014e-21
	-5.032952131936746e-02
	-1.973090934370703e-05
	-5.032952163911752e-02
	5.032952163910752e-02
	0.000000000000000e+00
	1.000000000000000e-14
	-1.130902633477149e-10
	-1.973090908435893e-05
	4.996003610813204e-21
	5.029895327527119e-05
	5.029895327527119e-05
	5.029895327527119e-02
	-1.130902633466445e-10
	4.999999999999950e-21
	-1.973090934441670e-05
	0.000000000000000e+00
13		3.580370868024658e-06
	5.029895201389889e+00
	1.000000000000000e+01
	1.000000000000000e+01
	5.000000000000000e-01
	8.968709382501002e+00
	1.000001124806682e+01
	5.029895307639370e+00
	3.013675797802762e-08
	5.029895201389888e-01
	8.968560416981290e+00
	4.999999999999950e-01
	5.000000000000000e-01
	8.968709382501002e+00
	-5.815024631090598e-14
	-4.976318565119014e-21
	1.489655197104740e-10
	-5.033862601769606e-02
	-5.033862601769606e-02
	-4.976318565119014e-21
	-5.033862601769606e-02
	-1.062494811776560e-05
	-5.033862605437579e-02
	5.033862605436579e-02
	0.000000000000000e+00
	1.000000000000000e-14
	-1.489655197115525e-10
	-1.062494812131831e-05
	4.996003610813204e-21
	5.029895201389888e-05
	5.029895201389889e-05
	5.029895201389889e-02
	-1.489655198863395e-10
	4.999999999999950e-21
	-1.062494811345985e-05
	0.000000000000000e+00
14		3.894161696415520e-06
	5.029895212391383e+00
	1.000000000000000e+01
	1.000000000000000e+01
	5.000000000000000e-01
	8.968707298127825e+00
	1.000001223386978e+01
	5.029895225300526e+00
	2.939312260252791e-08
	5.029895212391383e-01
	8.968563717430015e+00
	4.999999999999950e-01
	5.000000000000000e-01
	8.968707298127825e+00
	-5.815014299988979e-14
	-4.976318565119014e-21
	1.435806978106397e-10
	-5.034796016173864e-02
	-5.034796016173864e-02
	-4.976318565119014e-21
	-5.034796016173864e-02
	-1.290914156015788e-06
	-5.034796014892470e-02
	5.034796014891470e-02
	0.000000000000000e+00
	1.000000000000000e-14
	-1.435806978093978e-10
	-1.290914308782476e-06
	4.996003610813204e-21
	5.029895212391383e-05
	5.029895212391383e-05
	5.029895212391383e-02
	-1.435806977933495e-10
	4.999999999999950e-21
	-1.290914213492925e-06
	0.000000000000000e+00
15		4.230056919920968e-06
	5.029895346101243e+00
	1.000000000000000e+01
	1.000000000000000e+01
	5.000000000000000e-01
	8.968705441001084e+00
	1.000001328911574e+01
	5.029895270471386e+00
	2.359058859369156e-08
	5.029895346101243e-01
	8.968603830388247e+00
	4.999999999999949e-01
	5.000000000000000e-01
	8.968705441001084e+00
	-5.815004493570364e-14
	-5.082197683525802e-21
	1.016106128375732e-10
	-5.035681540027930e-02
	-5.035681540027930e-02
	-5.082197683525802e-21
	-5.035681540027930e-02
	7.562985956610646e-06
	-5.035681539266695e-02
	5.035681539265695e-02
	0.000000000000000e+00
	1.000000000000000e-14
	-1.016106128375327e-10
	7.562985793185817e-06
	5.051514762044462e-21
	5.029895346101243e-05
	5.029895346101243e-05
	5.029895346101244e-02
	-1.016106128710361e-10
	-4.704742382470807e-18
	7.562985826130057e-06
	0.000000000000000e+00
16		4.558753619011254e-06
	5.029895560460993e+00
	1.000000000000000e+01
	1.000000000000000e+01
	5.000000000000000e-01
	8.968704430904744e+00
	1.000001432174688e+01
	5.029895422737216e+00
	1.456304188351965e-08
	5.029895560460994e-01
	8.968668138313433e+00
	4.999999999999949e-01
	5.000000000000000e-01
	8.968704430904744e+00
	-5.814997959203237e-14
	-5.082197683525802e-21
	3.629259130940069e-11
	-5.036302693786759e-02
	-5.036302693786759e-02
	-5.082197683525802e-21
	-5.036302693786759e-02
	1.377237754240923e-05
	-5.036302695699804e-02
	5.036302695698804e-02
	0.000000000000000e+00
	1.000000000000000e-14
	-3.629259131088247e-11
	1.377237772715034e-05
	5.107025913275720e-21
	5.029895560460994e-05
	5.029895560460993e-05
	5.029895560460993e-02
	-3.629259137858290e-11
	-4.918313389233865e-19
	1.377237768286285e-05
	0.000000000000000e+00
17		5.010586194184838e-06
	5.029895897786447e+00
	1.000000000000000e+01
	1.000000000000000e+01
	5.000000000000000e-01
	8.968704759734747e+00
	1.000001574122077e+01
	5.029895726931345e+00
	6.190410406503588e-10
	5.029895897786446e-01
	8.968769335948991e+00
	4.999999999999949e-01
	5.000000000000000e-01
	8.968704759734747e+00
	-5.814995760924543e-14
	-5.082197683525802e-21
	-6.457621424389942e-11
	-5.036634344697582e-02
	-5.036634344697582e-02
	-5.082197683525802e-21
	-5.036634344697582e-02
	1.708551036472272e-05
	-5.036634358618869e-02
	5.036634358617869e-02
	0.000000000000000e+00
	1.000000000000000e-14
	6.457621424438287e-11
	1.708551016221804e-05
	5.107025913275720e-21
	5.029895897786446e-05
	5.029895897786447e-05
	5.029895897786447e-02
	6.457621430701996e-11
	4.663217968320559e-19
	1.708551038776816e-05
	0.000000000000000e+00
18		5.606114660117419e-06
	5.029896250329206e+00
	1.000000000000000e+01
	1.000000000000000e+01
	5.000000000000000e-01
	8.968707942482528e+00
	1.000001761212863e+01
	5.029896119404476e+00
	-1.355629530852553e-08
	5.029896250329206e-01
	8.968875098777289e+00
	4.999999999999948e-01
	5.000000000000000e-01
	8.968707942482528e+00
	-5.815004045014439e-14
	-5.188076801932590e-21
	-1.671562947618417e-10
	-5.036235393872495e-02
	-5.036235393872495e-02
	-5.188076801932590e-21
	-5.036235393872495e-02
	1.309247295466776e-05
	-5.036235431886241e-02
	5.036235431885241e-02
	0.000000000000000e+00
	1.000000000000000e-14
	1.671562947613836e-10
	1.309247297243132e-05
	5.218048215738235e-21
	5.029896250329206e-05
	5.029896250329206e-05
	5.029896250329206e-02
	1.671562948426076e-10
	-3.114845927498184e-18
	1.309247304403204e-05
	0.000000000000000e+00
19		5.973351540300996e-06
	5.029896358045295e+00
	1.000000000000000e+01
	1.000000000000000e+01
	5.000000000000000e-01
	8.968710984407705e+00
	1.000001876583731e+01
	5.029896284544965e+00
	-1.759619627783593e-08
	5.029896358045296e-01
	8.968907413604711e+00
	4.999999999999947e-01
	5.000000000000000e-01
	8.968710984407705e+00
	-5.815013689865608e-14
	-5.293955920339377e-21
	-1.964291970063954e-10
	-5.035661257690698e-02
	-5.035661257690698e-02
	-5.293955920339377e-21
	-5.035661257690698e-02
	7.350033001785050e-06
	-5.035661262285687e-02
	5.035661262284687e-02
	0.000000000000000e+00
	1.000000000000000e-14
	1.964291970057985e-10
	7.350032937836204e-06
	5.273559366969493e-21
	5.029896358045296e-05
	5.029896358045295e-05
	5.029896358045294e-02
	1.964291969712531e-10
	-1.430601845697041e-18
	7.350032912531154e-06
	0.000000000000000e+00
20		6.295492919793809e-06
	5.029896366539480e+00
	1.000000000000000e+01
	1.000000000000000e+01
	5.000000000000000e-01
	8.968713858231169e+00
	1.000001977787430e+01
	5.029896349649039e+00
	-1.755101575184881e-08
	5.029896366539479e-01
	8.968909961859708e+00
	4.999999999999947e-01
	5.000000000000000e-01
	8.968713858231169e+00
	-5.815023144097115e-14
	-5.293955920339377e-21
	-1.961036285394886e-10
	-5.035095167298358e-02
	-5.035095167298358e-02
	-5.293955920339377e-21
	-5.035095167298358e-02
	1.689043870101159e-06
	-5.035095166025801e-02
	5.035095166024801e-02
	0.000000000000000e+00
	1.000000000000000e-14
	1.961036285393902e-10
	1.689044015762420e-06
	5.329070518200752e-21
	5.029896366539479e-05
	5.029896366539480e-05
	5.029896366539480e-02
	1.961036286028122e-10
	1.365071054900558e-18
	1.689043780507199e-06
	0.000000000000000e+00
21		6.661359813432903e-06
	5.029896291531113e+00
	1.000000000000000e+01
	1.000000000000000e+01
	5.000000000000000e-01
	8.968716901910325e+00
	1.000002092727905e+01
	5.029896332226906e+00
	-1.401431326542024e-08
	5.029896291531114e-01
	8.968887459350071e+00
	4.999999999999947e-01
	5.000000000000000e-01
	8.968716901910325e+00
	-5.815033170020980e-14
	-5.293955920339377e-21
	-1.705574397467264e-10
	-5.034519229885042e-02
	-5.034519229885042e-02
	-5.293955920339377e-21
	-5.034519229885042e-02
	-4.069579176757543e-06
	-5.034519228645568e-02
	5.034519228644568e-02
	0.000000000000000e+00
	1.000000000000000e-14
	1.705574397465881e-10
	-4.069579340182372e-06
	5.273559366969493e-21
	5.029896291531114e-05
	5.029896291531113e-05
	5.029896291531113e-02
	1.705574399294843e-10
	-1.290499966732985e-18
	-4.069579047911641e-06
	0.000000000000000e+00
22		7.058968439253636e-06
	5.029896142843693e+00
	1.000000000000000e+01
	1.000000000000000e+01
	5.000000000000000e-01
	8.968719548071912e+00
	1.000002217640338e+01
	5.029896225998085e+00
	-7.485541742013879e-09
	5.029896142843694e-01
	8.968842853123988e+00
	4.999999999999947e-01
	5.000000000000000e-01
	8.968719548071912e+00
	-5.815041553793490e-14
	-5.293955920339377e-21
	-1.233050520768050e-10
	-5.034094495063151e-02
	-5.034094495063151e-02
	-5.293955920339377e-21
	-5.034094495063151e-02
	-8.315439231409982e-06
	-5.034094495858068e-02
	5.034094495857068e-02
	0.000000000000000e+00
	1.000000000000000e-14
	1.233050520763612e-10
	-8.315439181671991e-06
	5.273559366969493e-21
	5.029896142843694e-05
	5.029896142843694e-05
	5.029896142843693e-02
	1.233050522043548e-10
	1.245013306867603e-18
	-8.315439124460443e-06
	0.000000000000000e+00
23		7.513516996378059e-06
	5.029895948987324e+00
	1.000000000000000e+01
	1.000000000000000e+01
	5.000000000000000e-01
	8.968721462911589e+00
	1.000002360440979e+01
	5.029896046923144e+00
	8.182121646882479e-10
	5.029895948987324e-01
	8.968784696213106e+00
	4.999999999999947e-01
	5.000000000000000e-01
	8.968721462911589e+00
	-5.815046744852124e-14
	-5.293955920339377e-21
	-6.323330151762022e-11
	-5.033946486726187e-02
	-5.033946486726187e-02
	-5.293955920339377e-21
	-5.033946486726187e-02
	-9.793582080419583e-06
	-5.033946491676072e-02
	5.033946491675072e-02
	0.000000000000000e+00
	1.000000000000000e-14
	6.323330151758455e-11
	-9.793582034234305e-06
	5.273559366969493e-21
	5.029895948987324e-05
	5.029895948987324e-05
	5.029895948987324e-02
	6.323330163336742e-11
	-1.187111590283784e-18
	-9.793582092238157e-06
	0.000000000000000e+00
24		8.134312427135655e-06
	5.029895755747945e+00
	1.000000000000000e+01
	1.000000000000000e+01
	5.000000000000000e-01
	8.968722401330442e+00
	1.000002555469615e+01
	5.029895822902770e+00
	8.954201047295385e-09
	5.029895755747945e-01
	8.968726724399403e+00
	4.999999999999947e-01
	5.000000000000000e-01
	8.968722401330442e+00
	-5.815046984433579e-14
	-5.293955920339377e-21
	-4.323068960034276e-12
	-5.034254103247598e-02
	-5.034254103247598e-02
	-5.293955920339377e-21
	-5.034254103247598e-02
	-6.715482527397398e-06
	-5.034254116449298e-02
	5.034254116448298e-02
	0.000000000000000e+00
	1.000000000000000e-14
	4.323068960587761e-12
	-6.715482481212121e-06
	5.273559366969493e-21
	5.029895755747945e-05
	5.029895755747945e-05
	5.029895755747945e-02
	4.323068930398957e-12
	1.155585236270077e-18
	-6.715482464080320e-06
	0.000000000000000e+00
25		8.529197118967593e-06
	5.029895711633163e+00
	1.000000000000000e+01
	1.000000000000000e+01
	5.000000000000000e-01
	8.968722358646414e+00
	1.000002679526300e+01
	5.029895739767788e+00
	1.077951217176576e-08
	5.029895711633162e-01
	8.968713489964557e+00
	4.999999999999947e-01
	5.000000000000000e-01
	8.968722358646414e+00
	-5.815044420793334e-14
	-5.293955920339377e-21
	8.868681855998188e-12
	-5.034644261087145e-02
	-5.034644261087145e-02
	-5.293955920339377e-21
	-5.034644261087145e-02
	-2.813462401718425e-06
	-5.034644261732624e-02
	5.034644261731624e-02
	0.000000000000000e+00
	1.000000000000000e-14
	-8.868681856455396e-12
	-2.813462529616118e-06
	5.273559366969493e-21
	5.029895711633162e-05
	5.029895711633163e-05
	5.029895711633163e-02
	-8.868682073633233e-12
	-1.109450467956424e-18
	-2.813462487003242e-06
	0.000000000000000e+00
26		8.914170618435328e-06
	5.029895735927140e+00
	1.000000000000000e+01
	1.000000000000000e+01
	5.000000000000000e-01
	8.968722268934229e+00
	1.000002800469291e+01
	5.029895724564563e+00
	9.754641316916945e-09
	5.029895735927140e-01
	8.968720778157831e+00
	4.999999999999948e-01
	5.000000000000000e-01
	8.968722268934229e+00
	-5.815041594496809e-14
	-5.188076801932590e-21
	1.490776398133760e-12
	-5.035039257422518e-02
	-5.035039257422518e-02
	-5.188076801932590e-21
	-5.035039257422518e-02
	1.136257765210757e-06
	-5.035039255941648e-02
	5.035039255940648e-02
	0.000000000000000e+00
	1.000000000000000e-14
	-1.490776398327398e-12
	1.136257754552616e-06
	5.218048215738235e-21
	5.029895735927141e-05
	5.029895735927141e-05
	5.029895735927140e-02
	-1.490776482745528e-12
	5.324411279787536e-18
	1.136257647631979e-06
	0.000000000000000e+00
27		9.414397999743158e-06
	5.029895839382741e+00
	1.000000000000000e+01
	1.000000000000000e+01
	5.000000000000000e-01
	8.968722588763992e+00
	1.000002957620358e+01
	5.029895789972550e+00
	5.512305056853961e-09
	5.029895839382741e-01
	8.968751814837788e+00
	4.999999999999948e-01
	5.000000000000000e-01
	8.968722588763992e+00
	-5.815039523883331e-14
	-5.188076801932590e-21
	-2.922607379597772e-11
	-5.035419837121474e-02
	-5.035419837121474e-02
	-5.188076801932590e-21
	-5.035419837121474e-02
	4.941019028592564e-06
	-5.035419836623806e-02
	5.035419836622806e-02
	0.000000000000000e+00
	1.000000000000000e-14
	2.922607379574060e-11
	4.941019060566987e-06
	5.162537064506978e-21
	5.029895839382741e-05
	5.029895839382741e-05
	5.029895839382741e-02
	2.922607400154081e-11
	-1.913661269960545e-18
	4.941019052216989e-06
	0.000000000000000e+00
28		9.883887977635424e-06
	5.029895967835392e+00
	1.000000000000000e+01
	1.000000000000000e+01
	5.000000000000000e-01
	8.968723617326766e+00
	1.000003105114984e+01
	5.029895904865297e+00
	3.244693402848497e-10
	5.029895967835392e-01
	8.968790350632844e+00
	4.999999999999948e-01
	5.000000000000000e-01
	8.968723617326766e+00
	-5.815040431336605e-14
	-5.188076801932590e-21
	-6.673330607761283e-11
	-5.035555564738353e-02
	-5.035555564738353e-02
	-5.188076801932590e-21
	-5.035555564738353e-02
	6.297009463196446e-06
	-5.035555566018653e-02
	5.035555566017653e-02
	0.000000000000000e+00
	1.000000000000000e-14
	6.673330607753768e-11
	6.297009491618155e-06
	5.162537064506978e-21
	5.029895967835392e-05
	5.029895967835392e-05
	5.029895967835392e-02
	6.673330600796795e-11
	1.879546463540350e-18
	6.297009392040637e-06
	0.000000000000000e+00
29		1.056473894461185e-05
	5.029896112998492e+00
	1.000000000000000e+01
	1.000000000000000e+01
	5.000000000000000e-01
	8.968726321220720e+00
	1.000003319010623e+01
	5.029896067221133e+00
	-5.315799356253592e-09
	5.029896112998493e-01
	8.968833899563151e+00
	4.999999999999949e-01
	5.000000000000000e-01
	8.968726321220720e+00
	-5.815046678673431e-14
	-5.082197683525802e-21
	-1.075783424320953e-10
	-5.035383782694474e-02
	-5.035383782694474e-02
	-5.082197683525802e-21
	-5.035383782694474e-02
	4.577735978728015e-06
	-5.035383788882846e-02
	5.035383788881846e-02
	0.000000000000000e+00
	1.000000000000000e-14
	1.075783424315801e-10
	4.577735879252032e-06
	5.051514762044462e-21
	5.029896112998493e-05
	5.029896112998492e-05
	5.029896112998492e-02
	1.075783424876298e-10
	5.739624178877881e-19
	4.577736008066956e-06
	0.000000000000000e+00
30		1.096182181870415e-05
	5.029896149348693e+00
	1.000000000000000e+01
	1.000000000000000e+01
	5.000000000000000e-01
	8.968728343841750e+00
	1.000003443757887e+01
	5.029896127143233e+00
	-6.545153752313126e-09
	5.029896149348695e-01
	8.968844804623814e+00
	4.999999999999949e-01
	5.000000000000000e-01
	8.968728343841750e+00
	-5.815052201511874e-14
	-5.082197683525802e-21
	-1.164607820631911e-10
	-5.035148100099256e-02
	-5.035148100099256e-02
	-5.082197683525802e-21
	-5.035148100099256e-02
	2.220545979980670e-06
	-5.035148099644306e-02
	5.035148099643307e-02
	0.000000000000000e+00
	1.000000000000000e-14
	1.164607820633989e-10
	2.220546058140371e-06
	5.051514762044462e-21
	5.029896149348695e-05
	5.029896149348693e-05
	5.029896149348694e-02
	1.164607820501197e-10
	-5.533429115225594e-19
	2.220545906603892e-06
	0.000000000000000e+00
31		1.140635753729540e-05
	5.029896139509664e+00
	1.000000000000000e+01
	1.000000000000000e+01
	5.000000000000000e-01
	8.968730643562534e+00
	1.000003583412901e+01
	5.029896144763852e+00
	-5.815337766890138e-09
	5.029896139509663e-01
	8.968841852914238e+00
	4.999999999999949e-01
	5.000000000000000e-01
	8.968730643562534e+00
	-5.815058626972779e-14
	-5.082197683525802e-21
	-1.112093517047132e-10
	-5.034873493763719e-02
	-5.034873493763719e-02
	-5.082197683525802e-21
	-5.034873493763719e-02
	-5.254187840364466e-07
	-5.034873492277744e-02
	5.034873492276744e-02
	0.000000000000000e+00
	1.000000000000000e-14
	1.112093517043888e-10
	-5.254188195635834e-07
	5.107025913275720e-21
	5.029896139509664e-05
	5.029896139509665e-05
	5.029896139509665e-02
	1.112093516695777e-10
	-3.136306597862743e-18
	-5.254187759684045e-07
	0.000000000000000e+00
32		1.200382940588953e-05
	5.029896069547926e+00
	1.000000000000000e+01
	1.000000000000000e+01
	5.000000000000000e-01
	8.968733339699449e+00
	1.000003771114224e+01
	5.029896099699759e+00
	-2.543956600931097e-09
	5.029896069547926e-01
	8.968820864393365e+00
	4.999999999999948e-01
	5.000000000000000e-01
	8.968733339699449e+00
	-5.815065797417463e-14
	-5.188076801932590e-21
	-8.752469391508030e-11
	-5.034624447283569e-02
	-5.034624447283569e-02
	-5.188076801932590e-21
	-5.034624447283569e-02
	-3.015183381194220e-06
	-5.034624446604984e-02
	5.034624446603984e-02
	0.000000000000000e+00
	1.000000000000000e-14
	8.752469391559713e-11
	-3.015183303034519e-06
	5.218048215738235e-21
	5.029896069547926e-05
	5.029896069547927e-05
	5.029896069547927e-02
	8.752469386385659e-11
	3.507630675961582e-19
	-3.015183271546918e-06
	0.000000000000000e+00
33		1.257496899036652e-05
	5.029895986179617e+00
	1.000000000000000e+01
	1.000000000000000e+01
	5.000000000000000e-01
	8.968735259944800e+00
	1.000003950543016e+01
	5.029896020152785e+00
	1.180237463316303e-09
	5.029895986179617e-01
	8.968795853900474e+00
	4.999999999999948e-01
	5.000000000000000e-01
	8.968735259944800e+00
	-5.815070056559656e-14
	-5.188076801932590e-21
	-6.059395567328287e-11
	-5.034586150471803e-02
	-5.034586150471803e-02
	-5.188076801932590e-21
	-5.034586150471803e-02
	-3.397316845621390e-06
	-5.034586151235321e-02
	5.034586151234322e-02
	0.000000000000000e+00
	1.000000000000000e-14
	6.059395567348246e-11
	-3.397316827857821e-06
	5.162537064506978e-21
	5.029895986179617e-05
	5.029895986179617e-05
	5.029895986179617e-02
	6.059395561808532e-11
	2.540794215110900e-18
	-3.397316745025477e-06
	0.000000000000000e+00
34		1.346718428004738e-05
	5.029895922894950e+00
	1.000000000000000e+01
	1.000000000000000e+01
	5.000000000000000e-01
	8.968737288598591e+00
	1.000004230840715e+01
	5.029895933319714e+00
	4.080475013434892e-09
	5.029895922894952e-01
	8.968776868500981e+00
	4.999999999999949e-01
	5.000000000000000e-01