Title: * C:\Users\mn080015\OneDrive - Qorvo\Documents\QSPICE\QSPICE_on_MWJ_SIJ\Article2\Sim2\VRM_PSRR.qsch
Date: Fri Apr 14 14:30:56 2023
Plotname: AC Analysis
Plot Suggestion(s): «AC 1/V(VOUT)»
Flags: complex stepped
Abscissa: 1.000000000000000e+00 1.000000000000000e+07 dec
No. Variables: 30
No. Points: 140                  
Command: QSPICE80, Build Apr 11 2023 09:05:22
.alias freq frequency
.alias omega 2*pi*frequency
Variables:
	0	frequency	frequency
	1	V(vout)	voltage
	2	V(vin)	voltage
	3	V(n04)	voltage
	4	V(n09)	voltage
	5	V(n01)	voltage
	6	V(n02)	voltage
	7	V(n07)	voltage
	8	V(n03)	voltage
	9	V(n06)	voltage
	10	V(n08)	voltage
	11	V(n05)	voltage
	12	I(LOPEN)	current
	13	I(LESL)	current
	14	I(VM15)	current
	15	I(V15)	current
	16	I(VIN)	current
	17	I(VREF)	current
	18	I(VRIPPLE)	current
	19	Id(M_PMOS)	current
	20	Is(M_PMOS)	current
	21	Ig(M_PMOS)	current
	22	Ib(M_PMOS)	current
	23	I(RG)	current
	24	I(RFB)	current
	25	I(RESR)	current
	26	I(RLOAD)	current
	27	I(COPEN)	current
	28	I(COUT)	current
	29	x	parameter
Values:
0		1.000000000000000e+00
	6.671312130928173e+02,-6.767612986215115e+00
	1.000000000000000e+00,0.000000000000000e+00
	0.000000000000000e+00,0.000000000000000e+00
	0.000000000000000e+00,0.000000000000000e+00
	0.000000000000000e+00,0.000000000000000e+00
	0.000000000000000e+00,0.000000000000000e+00
	1.190914767984346e+05,1.604021489942186e+04
	6.671312130928173e+01,-6.767612986215115e-01
	-4.637397886895463e-04,-1.936030116666506e-02
	6.671312110942174e+02,-6.767809996539220e+00
	-2.475704747557870e-10,2.511514835557345e-12
	2.552882570786889e+00,-1.895399728639111e+01
	1.998600003637900e-03,1.970103241049539e-01
	-1.276006703768258e+02,2.111768725219312e+00
	5.956310543864571e+00,8.019943014487794e-01
	-6.679982043033114e+00,-1.292665181132412e-01
	0.000000000000000e+00,0.000000000000000e+00
	-6.679982043033114e+00,-1.292665181132412e-01
	-6.679982043033114e+00,-1.292665181132412e-01
	6.679982043033114e+00,1.292665181132412e-01
	0.000000000000000e+00,0.000000000000000e+00
	-3.470115031732176e-94,3.525490937945087e-96
	6.671312130928173e-03,-6.767612986215115e-05
	6.671312130928173e-03,-6.767612986215115e-05
	1.998599941543944e-03,1.970103241051291e-01
	6.671312130928174e+00,-6.767612986215114e-02
	1.216443598329613e+02,-2.913763026668084e+00
	1.998600003637900e-03,1.970103241049540e-01
	0.000000000000000e+00,0.000000000000000e+00
1		1.258925411794167e+00
	6.668170469257192e+02,-1.452141130996563e+01
	1.000000000000000e+00,0.000000000000000e+00
	0.000000000000000e+00,0.000000000000000e+00
	0.000000000000000e+00,0.000000000000000e+00
	0.000000000000000e+00,0.000000000000000e+00
	0.000000000000000e+00,0.000000000000000e+00
	1.200676050403886e+05,1.120835425800282e+04
	6.668170469257193e+01,-1.452141130996563e+00
	-5.019845782217982e-04,-1.535823450938541e-02
	6.668170415269598e+02,-1.452165921446930e+01
	-3.921879814813464e-10,8.540903816846323e-12
	1.416976265403117e+00,-1.517909857744685e+01
	5.398759323581660e-03,2.479045036712404e-01
	-1.274896979648536e+02,3.410347561968627e+00
	6.005116157077310e+00,5.603813992408978e-01
	-6.680237399121650e+00,-1.025451764569248e-01
	0.000000000000000e+00,0.000000000000000e+00
	-6.680237399121650e+00,-1.025451764569248e-01
	-6.680237399121649e+00,-1.025451764569248e-01
	6.680237399121649e+00,1.025451764569248e-01
	0.000000000000000e+00,0.000000000000000e+00
	-3.468478428135946e-94,7.564720985631998e-96
	6.668170469257193e-03,-1.452141130996563e-04
	6.668170469257192e-03,-1.452141130996563e-04
	5.398759412855725e-03,2.479045036682948e-01
	6.668170469257192e+00,-1.452141130996563e-01
	1.214845818077763e+02,-3.970728961209527e+00
	5.398759323581659e-03,2.479045036712403e-01
	0.000000000000000e+00,0.000000000000000e+00
2		1.584893192461114e+00
	6.662949333976550e+02,-2.302712959850966e+01
	1.000000000000000e+00,0.000000000000000e+00
	0.000000000000000e+00,0.000000000000000e+00
	0.000000000000000e+00,0.000000000000000e+00
	0.000000000000000e+00,0.000000000000000e+00
	0.000000000000000e+00,0.000000000000000e+00
	1.206330616317877e+05,6.887634946595006e+03
	6.662949333976550e+01,-2.302712959850966e+00
	-5.248272112628325e-04,-1.218342594109137e-02
	6.662949226200216e+02,-2.302744144741945e+01
	-6.210893668740179e-10,2.146511783867240e-11
	6.916573887943153e-01,-1.211396971976595e+01
	1.077763354756334e-02,3.118489097877836e-01
	-1.273581072042796e+02,4.881998905124550e+00
	6.033387658870444e+00,3.443236846204543e-01
	-6.680389916771677e+00,-8.134734250968828e-02
	0.000000000000000e+00,0.000000000000000e+00
	-6.680389916771677e+00,-8.134734250968828e-02
	-6.680389916771677e+00,-8.134734250968828e-02
	6.680389916771677e+00,8.134734250968828e-02
	0.000000000000000e+00,0.000000000000000e+00
	-3.465758552582308e-94,1.199565295648430e-95
	6.662949333976551e-03,-2.302712959850966e-04
	6.662949333976550e-03,-2.302712959850966e-04
	1.077763340617821e-02,3.118489097921895e-01
	6.662949333976550e+00,-2.302712959850966e-01
	1.213247195454092e+02,-5.226322589745002e+00
	1.077763354756334e-02,3.118489097877836e-01
	0.000000000000000e+00,0.000000000000000e+00
3		1.995262314968880e+00
	6.654543028301537e+02,-3.272582971713987e+01
	1.000000000000000e+00,0.000000000000000e+00
	0.000000000000000e+00,0.000000000000000e+00
	0.000000000000000e+00,0.000000000000000e+00
	0.000000000000000e+00,0.000000000000000e+00
	0.000000000000000e+00,0.000000000000000e+00
	1.209007496669714e+05,2.894130432108872e+03
	6.654543028301536e+01,-3.272582971713987e+00
	-5.383978963137457e-04,-9.662235196837539e-03
	6.654542835471983e+02,-3.272622181633540e+01
	-9.831183793421396e-10,4.834855068122401e-11
	2.308552106455672e-01,-9.643820701842467e+00
	1.928295536510908e-02,3.920991955366907e-01
	-1.271783753388500e+02,6.605056904770531e+00
	6.046769922835138e+00,1.446237027278678e-01
	-6.680480526684707e+00,-6.451364006862427e-02
	0.000000000000000e+00,0.000000000000000e+00
	-6.680480526684707e+00,-6.451364006862427e-02
	-6.680480526684708e+00,-6.451364006862427e-02
	6.680480526684708e+00,6.451364006862427e-02
	0.000000000000000e+00,0.000000000000000e+00
	-3.461379408186903e-94,1.704805170442164e-95
	6.654543028301537e-03,-3.272582971713987e-04
	6.654543028301537e-03,-3.272582971713987e-04
	1.928295534980862e-02,3.920991955368436e-01
	6.654543028301537e+00,-3.272582971713986e-01
	1.211316054160149e+02,-6.749680607498398e+00
	1.928295536510908e-02,3.920991955366906e-01
	0.000000000000000e+00,0.000000000000000e+00
4		2.511886431509581e+00
	6.641173453030309e+02,-4.410587907047353e+01
	1.000000000000000e+00,0.000000000000000e+00
	0.000000000000000e+00,0.000000000000000e+00
	0.000000000000000e+00,0.000000000000000e+00
	0.000000000000000e+00,0.000000000000000e+00
	0.000000000000000e+00,0.000000000000000e+00
	1.209252466824420e+05,-9.572239788176730e+02
	6.641173453030309e+01,-4.410587907047353e+00
	-5.461141620707753e-04,-7.658068400424672e-03
	6.641173125856101e+02,-4.410637170237045e+01
	-1.555007156668591e-09,1.032735065811066e-10
	-6.064991917804499e-02,-7.661911223218781e+00
	3.271742077315688e-02,4.926318969332265e-01
	-1.269125886830139e+02,8.667100572036682e+00
	6.047991373635766e+00,-4.797302806862574e-02
	-6.680532047309240e+00,-5.113204743428369e-02
	0.000000000000000e+00,0.000000000000000e+00
	-6.680532047309240e+00,-5.113204743428369e-02
	-6.680532047309240e+00,-5.113204743428369e-02
	6.680532047309240e+00,5.113204743428369e-02
	0.000000000000000e+00,0.000000000000000e+00
	-3.454414719668381e-94,2.297632522571582e-95
	6.641173453030310e-03,-4.410587907047353e-04
	6.641173453030310e-03,-4.410587907047353e-04
	3.271742082233686e-02,4.926318969253884e-01
	6.641173453030309e+00,-4.410587907047353e-01
	1.208645973093781e+02,-8.619127543968053e+00
	3.271742077315686e-02,4.926318969332263e-01
	0.000000000000000e+00,0.000000000000000e+00
5		3.162277660168380e+00
	6.620038760620548e+02,-5.771537104223474e+01
	1.000000000000000e+00,0.000000000000000e+00
	0.000000000000000e+00,0.000000000000000e+00
	0.000000000000000e+00,0.000000000000000e+00
	0.000000000000000e+00,0.000000000000000e+00
	0.000000000000000e+00,0.000000000000000e+00
	1.207118040853703e+05,-4.849622889174830e+03
	6.620038760620548e+01,-5.771537104223474e+00
	-5.498439669984957e-04,-6.063045796075248e-03
	6.620038221639035e+02,-5.771598925536267e+01
	-2.456677154633439e-09,2.141823770704692e-10
	-2.440773938677373e-01,-6.075330019001099e+00
	5.389815142311430e-02,6.182131279389700e-01
	-1.265050411104585e+02,1.116757448068225e+01
	6.037313869112035e+00,-2.426276355521181e-01
	-6.680556950790446e+00,-4.048226380740635e-02
	0.000000000000000e+00,0.000000000000000e+00
	-6.680556950790446e+00,-4.048226380740635e-02
	-6.680556950790446e+00,-4.048226380740635e-02
	6.680556950790446e+00,4.048226380740635e-02
	0.000000000000000e+00,0.000000000000000e+00
	-3.443404904727923e-94,3.006599490898683e-95
	6.620038760620548e-03,-5.771537104223474e-04
	6.620038760620548e-03,-5.771537104223473e-04
	5.389815135004028e-02,6.182131279359737e-01
	6.620038760620548e+00,-5.771537104223474e-01
	1.204677272413465e+02,-1.092494684513013e+01
	5.389815142311428e-02,6.182131279389699e-01
	0.000000000000000e+00,0.000000000000000e+00
6		3.981071705534974e+00
	6.586782826363533e+02,-7.416390636060056e+01
	1.000000000000000e+00,0.000000000000000e+00
	0.000000000000000e+00,0.000000000000000e+00
	0.000000000000000e+00,0.000000000000000e+00
	0.000000000000000e+00,0.000000000000000e+00
	0.000000000000000e+00,0.000000000000000e+00
	1.202174457163726e+05,-8.963766773927287e+03
	6.586782826363533e+01,-7.416390636060057e+00
	-5.504880723346680e-04,-4.791716567123665e-03
	6.586781954447110e+02,-7.416468073504707e+01
	-3.874011247928789e-09,4.361990564645012e-10
	-3.583525074880139e-01,-4.806042752923511e+00
	8.719164228042595e-02,7.743744465142897e-01
	-1.258716812528843e+02,1.421818143167213e+01
	6.012587493511615e+00,-4.483766965378919e-01
	-6.680561251408157e+00,-3.199374385167719e-02
	0.000000000000000e+00,0.000000000000000e+00
	-6.680561251408157e+00,-3.199374385167719e-02
	-6.680561251408157e+00,-3.199374385167719e-02
	6.680561251408157e+00,3.199374385167719e-02
	0.000000000000000e+00,0.000000000000000e+00
	-3.426080702665126e-94,3.863462351193532e-95
	6.586782826363533e-03,-7.416390636060058e-04
	6.586782826363533e-03,-7.416390636060057e-04
	8.719164225112763e-02,7.743744465074087e-01
	6.586782826363533e+00,-7.416390636060056e-01
	1.198590937593727e+02,-1.376980473513423e+01
	8.719164228042593e-02,7.743744465142895e-01
	0.000000000000000e+00,0.000000000000000e+00
7		5.011872336272725e+00
	6.534733908347888e+02,-9.410213783963263e+01
	1.000000000000000e+00,0.000000000000000e+00
	0.000000000000000e+00,0.000000000000000e+00
	0.000000000000000e+00,0.000000000000000e+00
	0.000000000000000e+00,0.000000000000000e+00
	0.000000000000000e+00,0.000000000000000e+00
	1.193443669022439e+05,-1.347513506425206e+04
	6.534733908347889e+01,-9.410213783963263e+00
	-5.482596087787244e-04,-3.776261771736562e-03
	6.534732515570588e+02,-9.410310501570066e+01
	-6.091375970360552e-09,8.771857015773083e-10
	-4.279106907361599e-01,-3.789850326484763e+00
	1.392777300063733e-01,9.671760680112003e-01
	-1.248853770762852e+02,1.793897745370831e+01
	5.968920316517850e+00,-6.739958392332606e-01
	-6.680546372211696e+00,-2.521366824380917e-02
	0.000000000000000e+00,0.000000000000000e+00
	-6.680546372211696e+00,-2.521366824380917e-02
	-6.680546372211696e+00,-2.521366824380917e-02
	6.680546372211696e+00,2.521366824380917e-02
	0.000000000000000e+00,0.000000000000000e+00
	-3.398966565203695e-94,4.902115928771863e-95
	6.534733908347889e-03,-9.410213783963263e-04
	6.534733908347888e-03,-9.410213783963264e-04
	1.392777299997761e-01,9.671760680305397e-01
	6.534733908347889e+00,-9.410213783963264e-01
	1.189164567597674e+02,-1.726498161447505e+01
	1.392777300063733e-01,9.671760680111999e-01
	0.000000000000000e+00,0.000000000000000e+00
8		6.309573444801935e+00
	6.453893337734524e+02,-1.181575561814576e+02
	1.000000000000000e+00,0.000000000000000e+00
	0.000000000000000e+00,0.000000000000000e+00
	0.000000000000000e+00,0.000000000000000e+00
	0.000000000000000e+00,0.000000000000000e+00
	0.000000000000000e+00,0.000000000000000e+00
	1.179263457267825e+05,-1.854404993444344e+04
	6.453893337734524e+01,-1.181575561814576e+01
	-5.427944822959262e-04,-2.962817456344687e-03
	6.453891136108014e+02,-1.181587587209885e+02
	-9.534748142943540e-09,1.745635278823463e-09
	-4.677616904347192e-01,-2.974616444956658e+00
	2.201626511608618e-01,1.202539530890087e+00
	-1.233565832787532e+02,2.244616618598168e+01
	5.897998699610985e+00,-9.275027693990331e-01
	-6.680509882186804e+00,-1.978239352217581e-02
	0.000000000000000e+00,0.000000000000000e+00
	-6.680509882186804e+00,-1.978239352217581e-02
	-6.680509882186805e+00,-1.978239352217581e-02
	6.680509882186805e+00,1.978239352217581e-02
	0.000000000000000e+00,0.000000000000000e+00
	-3.356853829192306e-94,6.155248451942510e-95
	6.453893337734525e-03,-1.181575561814576e-03
	6.453893337734526e-03,-1.181575561814576e-03
	2.201626510895949e-01,1.202539530893887e+00
	6.453893337734525e+00,-1.181575561814576e+00
	1.174585845791423e+02,-2.151866341658265e+01
	2.201626511608618e-01,1.202539530890087e+00
	0.000000000000000e+00,0.000000000000000e+00
9		7.943282347242818e+00
	6.329780290280431e+02,-1.467911028806517e+02
	1.000000000000000e+00,0.000000000000000e+00
	0.000000000000000e+00,0.000000000000000e+00
	0.000000000000000e+00,0.000000000000000e+00
	0.000000000000000e+00,0.000000000000000e+00
	0.000000000000000e+00,0.000000000000000e+00
	1.157108943529066e+05,-2.429155351765260e+04
	6.329780290280431e+01,-1.467911028806517e+01
	-5.331688081111273e-04,-2.308680073934523e-03
	6.329776846925010e+02,-1.467925876743845e+02
	-1.482094821315493e-08,3.437096429480227e-09
	-4.867157279911935e-01,-2.318432114791684e+00
	3.443355421107254e-01,1.484793732814603e+00
	-1.210113737264775e+02,2.782493409033607e+01
	5.787194568393294e+00,-1.214950766571856e+00
	-6.680445612660434e+00,-1.541479298414981e-02
	0.000000000000000e+00,0.000000000000000e+00
	-6.680445612660434e+00,-1.541479298414981e-02
	-6.680445612660435e+00,-1.541479298414981e-02
	6.680445612660435e+00,1.541479298414981e-02
	0.000000000000000e+00,0.000000000000000e+00
	-3.292198916895841e-94,7.646872006877684e-95
	6.329780290280432e-03,-1.467911028806517e-03
	6.329780290280432e-03,-1.467911028806517e-03
	3.443355420813532e-01,1.484793732799972e+00
	6.329780290280431e+00,-1.467911028806517e+00
	1.152241791580842e+02,-2.660998332376422e+01
	3.443355421107253e-01,1.484793732814603e+00
	0.000000000000000e+00,0.000000000000000e+00
10		1.000000000000001e+01
	6.142558813721976e+02,-1.800268938577859e+02
	1.000000000000000e+00,0.000000000000000e+00
	0.000000000000000e+00,0.000000000000000e+00
	0.000000000000000e+00,0.000000000000000e+00
	0.000000000000000e+00,0.000000000000000e+00
	0.000000000000000e+00,0.000000000000000e+00
	1.123454216516865e+05,-3.075222788371528e+04
	6.142558813721976e+01,-1.800268938577859e+01
	-5.178943074222398e-04,-1.780243297332365e-03
	6.142553497299435e+02,-1.800287078134744e+02
	-2.279483946045420e-08,6.680813597611490e-09
	-4.894368795447180e-01,-1.788032927203459e+00
	5.316422539677084e-01,1.813955688558738e+00
	-1.174748586120733e+02,3.407832802634694e+01
	5.618873322037219e+00,-1.538068995671494e+00
	-6.680343626565127e+00,-1.188648102421183e-02
	0.000000000000000e+00,0.000000000000000e+00
	-6.680343626565127e+00,-1.188648102421183e-02
	-6.680343626565127e+00,-1.188648102421183e-02
	6.680343626565127e+00,1.188648102421183e-02
	0.000000000000000e+00,0.000000000000000e+00
	-3.194668573429101e-94,9.378242877877416e-95
	6.142558813721976e-03,-1.800268938577859e-03
	6.142558813721976e-03,-1.800268938577859e-03
	5.316422540317944e-01,1.813955688533042e+00
	6.142558813721976e+00,-1.800268938577859e+00
	1.118559852900361e+02,-3.254025903067545e+01
	5.316422539677084e-01,1.813955688558739e+00
	0.000000000000000e+00,0.000000000000000e+00
11		1.258925411794168e+01
	5.867500883249924e+02,-2.170180433230542e+02
	1.000000000000000e+00,0.000000000000000e+00
	0.000000000000000e+00,0.000000000000000e+00
	0.000000000000000e+00,0.000000000000000e+00
	0.000000000000000e+00,0.000000000000000e+00
	0.000000000000000e+00,0.000000000000000e+00
	1.073868299338400e+05,-3.779718298122745e+04
	5.867500883249924e+01,-2.170180433230542e+01
	-4.949996758018773e-04,-1.351557021990880e-03
	5.867492815026147e+02,-2.170202246978596e+02
	-3.450961838566565e-08,1.276402949674760e-08
	-4.778367514824437e-01,-1.357597894649168e+00
	8.068223776986870e-01,2.181374805385069e+00
	-1.122798674649689e+02,4.104519032430465e+01
	5.370873787611623e+00,-1.890410799985057e+00
	-6.680190761726529e+00,-9.024191760254393e-03
	0.000000000000000e+00,0.000000000000000e+00
	-6.680190761726529e+00,-9.024191760254393e-03
	-6.680190761726529e+00,-9.024191760254393e-03
	6.680190761726529e+00,9.024191760254393e-03
	0.000000000000000e+00,0.000000000000000e+00
	-3.051381088866323e-94,1.130524376415165e-94
	5.867500883249924e-03,-2.170180433230542e-03
	5.867500883249924e-03,-2.170180433230542e-03
	8.068223776263039e-01,2.181374805417136e+00
	5.867500883249924e+00,-2.170180433230542e+00
	1.069089936773573e+02,-3.915477952431960e+01
	8.068223776986868e-01,2.181374805385069e+00
	0.000000000000000e+00,0.000000000000000e+00
12		1.584893192461115e+01
	5.478678032420432e+02,-2.554949610468837e+02
	1.000000000000000e+00,0.000000000000000e+00
	0.000000000000000e+00,0.000000000000000e+00
	0.000000000000000e+00,0.000000000000000e+00
	0.000000000000000e+00,0.000000000000000e+00
	0.000000000000000e+00,0.000000000000000e+00
	1.003689897446675e+05,-4.503557707694863e+04
	5.478678032420433e+01,-2.554949610468837e+01
	-4.623685480473832e-04,-1.003363736324027e-03
	5.478666074258663e+02,-2.554975252507888e+02
	-5.106959588269331e-08,2.381629978306708e-08
	-4.522471660044047e-01,-1.007905201472038e+00
	1.195816176971358e+00,2.564203905063958e+00
	-1.049366259396473e+02,4.829590959516869e+01
	5.019882898615675e+00,-2.252428320111754e+00
	-6.679972887416072e+00,-6.699344988445812e-03
	0.000000000000000e+00,0.000000000000000e+00
	-6.679972887416072e+00,-6.699344988445812e-03
	-6.679972887416072e+00,-6.699344988445812e-03
	6.679972887416072e+00,6.699344988445812e-03
	0.000000000000000e+00,0.000000000000000e+00
	-2.848829400426470e-94,1.330964361727156e-94
	5.478678032420433e-03,-2.554949610468837e-03
	5.478678032420433e-03,-2.554949610468838e-03
	1.195816176959852e+00,2.564203905052409e+00
	5.478678032420432e+00,-2.554949610468837e+00
	9.991674304103161e+01,-4.604348127505692e+01
	1.195816176971357e+00,2.564203905063957e+00
	0.000000000000000e+00,0.000000000000000e+00
13		1.995262314968881e+01
	4.957961304681750e+02,-2.913585138613094e+02
	1.000000000000000e+00,0.000000000000000e+00
	0.000000000000000e+00,0.000000000000000e+00
	0.000000000000000e+00,0.000000000000000e+00
	0.000000000000000e+00,0.000000000000000e+00
	0.000000000000000e+00,0.000000000000000e+00
	9.096582926409396e+04,-5.174209219977179e+04
	4.957961304681750e+01,-2.913585138613094e+01
	-4.185160363343647e-04,-7.223097238909321e-04
	4.957944137073518e+02,-2.913614351828127e+02
	-7.324689503295939e-08,4.304469729682195e-08
	-4.127281692622733e-01,-7.256019089734893e-01
	1.716760823197928e+00,2.921321503235653e+00
	-9.510269396703671e+01,5.505553861793430e+01
	4.549592453688986e+00,-2.587845231498745e+00
	-6.679680089207466e+00,-4.822779470367148e-03
	0.000000000000000e+00,0.000000000000000e+00
	-6.679680089207466e+00,-4.822779470367148e-03
	-6.679680089207466e+00,-4.822779470367148e-03
	6.679680089207466e+00,4.822779470367148e-03
	0.000000000000000e+00,0.000000000000000e+00
	-2.577569488162216e-94,1.517790397298798e-94
	4.957961304681750e-03,-2.913585138613094e-03
	4.957961304681750e-03,-2.913585138613094e-03
	1.716760823171626e+00,2.921321503265517e+00
	4.957961304681750e+00,-2.913585138613094e+00
	9.055310151334773e+01,-5.246769338643555e+01
	1.716760823197928e+00,2.921321503235654e+00
	0.000000000000000e+00,0.000000000000000e+00
14		2.511886431509582e+01
	4.308893136992944e+02,-3.189725551833614e+02
	1.000000000000000e+00,0.000000000000000e+00
	0.000000000000000e+00,0.000000000000000e+00
	0.000000000000000e+00,0.000000000000000e+00
	0.000000000000000e+00,0.000000000000000e+00
	0.000000000000000e+00,0.000000000000000e+00
	7.924225902396800e+04,-5.691057176944379e+04
	4.308893136992944e+01,-3.189725551833614e+01
	-3.637707452812838e-04,-4.997999720227194e-04
	4.308869475867634e+02,-3.189757514357460e+02
	-1.008906520986751e-07,7.468704203331116e-08
	-3.605895003104906e-01,-5.020846932060296e-01
	2.366112531084845e+00,3.196252384630867e+00
	-8.284491876755561e+01,6.025899533254811e+01
	3.963248880127364e+00,-2.846339369698267e+00
	-6.679314561156192e+00,-3.337107288791280e-03
	0.000000000000000e+00,0.000000000000000e+00
	-6.679314561156192e+00,-3.337107288791280e-03
	-6.679314561156191e+00,-3.337107288791280e-03
	6.679314561156191e+00,3.337107288791280e-03
	0.000000000000000e+00,0.000000000000000e+00
	-2.239446733809020e-94,1.661641785726642e-94
	4.308893136992944e-03,-3.189725551833614e-03
	4.308893136992944e-03,-3.189725551833614e-03
	2.366112531035469e+00,3.196252384668696e+00
	4.308893136992944e+00,-3.189725551833614e+00
	7.888166988742826e+01,-5.741265596284984e+01
	2.366112531084844e+00,3.196252384630867e+00
	0.000000000000000e+00,0.000000000000000e+00
15		3.162277660168382e+01
	3.568488244502929e+02,-3.326878123933202e+02
	1.000000000000000e+00,0.000000000000000e+00
	0.000000000000000e+00,0.000000000000000e+00
	0.000000000000000e+00,0.000000000000000e+00
	0.000000000000000e+00,0.000000000000000e+00
	0.000000000000000e+00,0.000000000000000e+00
	6.586756590165476e+04,-5.952996149856363e+04
	3.568488244502929e+01,-3.326878123933202e+01
	-3.012780491652882e-04,-3.299983594914305e-04
	3.568457176097210e+02,-3.326911448016835e+02
	-1.324244200942998e-07,1.234607275546914e-07
	-2.996096042224595e-01,-3.315062710233743e-01
	3.106840571837172e+00,3.332408363369851e+00
	-6.886228253324892e+01,6.283881109022641e+01
	3.294325934538575e+00,-2.977343650637778e+00
	-6.678897304566799e+00,-2.203361329315878e-03
	0.000000000000000e+00,0.000000000000000e+00
	-6.678897304566799e+00,-2.203361329315878e-03
	-6.678897304566799e+00,-2.203361329315878e-03
	6.678897304566799e+00,2.203361329315878e-03
	0.000000000000000e+00,0.000000000000000e+00
	-1.853743422434592e-94,1.733089451401062e-94
	3.568488244502929e-03,-3.326878123933202e-03
	3.568488244502929e-03,-3.326878123933202e-03
	3.106840571831526e+00,3.332408363348804e+00
	3.568488244502928e+00,-3.326878123933202e+00
	6.556795659871035e+01,-5.986146743958865e+01
	3.106840571837172e+00,3.332408363369851e+00
	0.000000000000000e+00,0.000000000000000e+00
16		3.981071705534977e+01
	2.804681428245488e+02,-3.292599590048013e+02
	1.000000000000000e+00,0.000000000000000e+00
	0.000000000000000e+00,0.000000000000000e+00
	0.000000000000000e+00,0.000000000000000e+00
	0.000000000000000e+00,0.000000000000000e+00
	0.000000000000000e+00,0.000000000000000e+00
	5.206942764243418e+04,-5.902166705277813e+04
	2.804681428245488e+01,-3.292599590048013e+01
	-2.367885044491374e-04,-2.072194079260909e-04
	2.804642718439432e+02,-3.292632562805712e+02
	-1.649548674773831e-07,1.936559564177038e-07
	-2.359563133448106e-01,-2.081627120512167e-01
	3.870980605575961e+00,3.297275769938201e+00
	-5.443769634575646e+01,6.218174966030917e+01
	2.604224779878590e+00,-2.951920102699224e+00
	-6.678466715247532e+00,-1.383580302677042e-03
	0.000000000000000e+00,0.000000000000000e+00
	-6.678466715247532e+00,-1.383580302677042e-03
	-6.678466715247532e+00,-1.383580302677042e-03
	6.678466715247532e+00,1.383580302677042e-03
	0.000000000000000e+00,0.000000000000000e+00
	-1.455849214455911e-94,1.715232540725993e-94
	2.804681428245488e-03,-3.292599590048013e-03
	2.804681428245488e-03,-3.292599590048013e-03
	3.870980605597651e+00,3.297275769909902e+00
	2.804681428245488e+00,-3.292599590048013e+00
	5.183347156587787e+01,-5.922982955760994e+01
	3.870980605575961e+00,3.297275769938200e+00
	0.000000000000000e+00,0.000000000000000e+00
17		5.011872336272729e+01
	2.094250102960619e+02,-3.095612843662448e+02
	1.000000000000000e+00,0.000000000000000e+00
	0.000000000000000e+00,0.000000000000000e+00
	0.000000000000000e+00,0.000000000000000e+00
	0.000000000000000e+00,0.000000000000000e+00
	0.000000000000000e+00,0.000000000000000e+00
	3.923513213197901e+04,-5.554918667678733e+04
	2.094250102960619e+01,-3.095612843662448e+01
	-1.767953510270914e-04,-1.240332943249261e-04
	2.094204285742671e+02,-3.095643839028575e+02
	-1.952120556514827e-07,2.885616276767925e-07
	-1.763996971874096e-01,-1.245934619007056e-01
	4.581721794769342e+00,3.099536612615443e+00
	-4.102106194619751e+01,5.845202586528192e+01
	1.962329334610573e+00,-2.778245850627193e+00
	-6.678066147819022e+00,-8.281561298800752e-04
	0.000000000000000e+00,0.000000000000000e+00
	-6.678066147819022e+00,-8.281561298800752e-04
	-6.678066147819021e+00,-8.281561298800752e-04
	6.678066147819021e+00,8.281561298800752e-04
	0.000000000000000e+00,0.000000000000000e+00
	-1.085760203097585e-94,1.612615119976290e-94
	2.094250102960619e-03,-3.095612843662448e-03
	2.094250102960619e-03,-3.095612843662448e-03
	4.581721794750138e+00,3.099536612637621e+00
	2.094250102960619e+00,-3.095612843662448e+00
	3.905873261158695e+01,-5.567378001465474e+01
	4.581721794769343e+00,3.099536612615444e+00
	0.000000000000000e+00,0.000000000000000e+00
18		6.309573444801940e+01
	1.494347143803137e+02,-2.781030879975448e+02
	1.000000000000000e+00,0.000000000000000e+00
	0.000000000000000e+00,0.000000000000000e+00
	0.000000000000000e+00,0.000000000000000e+00
	0.000000000000000e+00,0.000000000000000e+00
	0.000000000000000e+00,0.000000000000000e+00
	2.839732850346170e+04,-4.993213944572646e+04
	1.494347143803137e+01,-2.781030879975448e+01
	-1.261313020415521e-04,-7.131273766431853e-05
	1.494295324939349e+02,-2.781058722856026e+02
	-2.207618519562649e-07,4.108636785581489e-07
	-1.259506188510792e-01,-7.163044002171205e-02
	5.181886378810638e+00,2.784288057848551e+00
	-2.969166459937005e+01,5.250108312766945e+01
	1.420286588628133e+00,-2.497313313234012e+00
	-6.677727869754570e+00,-4.761469987286034e-04
	0.000000000000000e+00,0.000000000000000e+00
	-6.677727869754570e+00,-4.761469987286034e-04
	-6.677727869754570e+00,-4.761469987286034e-04
	6.677727869754570e+00,4.761469987286034e-04
	0.000000000000000e+00,0.000000000000000e+00
	-7.732493591022099e-95,1.448738157082798e-94
	1.494347143803137e-03,-2.781030879975449e-03
	1.494347143803137e-03,-2.781030879975448e-03
	5.181886378807121e+00,2.784288057796402e+00
	1.494347143803137e+00,-2.781030879975448e+00
	2.827137801074193e+01,-5.000376981443544e+01
	5.181886378810638e+00,2.784288057848552e+00
	0.000000000000000e+00,0.000000000000000e+00
19		7.943282347242825e+01
	1.027762188310224e+02,-2.408044442647787e+02
	1.000000000000000e+00,0.000000000000000e+00
	0.000000000000000e+00,0.000000000000000e+00
	0.000000000000000e+00,0.000000000000000e+00
	0.000000000000000e+00,0.000000000000000e+00
	0.000000000000000e+00,0.000000000000000e+00
	1.996777869768075e+04,-4.324341006469488e+04
	1.027762188310224e+01,-2.408044442647787e+01
	-8.672447580351863e-05,-3.983467648500013e-05
	1.027705701562180e+02,-2.408068549832373e+02
	-2.406336492561215e-07,5.638407200857625e-07
	-8.664431353110665e-02,-4.000828067261977e-02
	5.648674804395665e+00,2.410718458638617e+00
	-2.087982490382576e+01,4.544620007442620e+01
	9.986904329516373e-01,-2.162781768893381e+00
	-6.677464754879763e+00,-2.659715820045980e-04
	0.000000000000000e+00,0.000000000000000e+00
	-6.677464754879763e+00,-2.659715820045980e-04
	-6.677464754879764e+00,-2.659715820045980e-04
	6.677464754879764e+00,2.659715820045980e-04
	0.000000000000000e+00,0.000000000000000e+00
	-5.301886173425469e-95,1.254436221163364e-94
	1.027762188310224e-03,-2.408044442647787e-03
	1.027762188310224e-03,-2.408044442647787e-03
	5.648674804390907e+00,2.410718458691008e+00
	1.027762188310224e+00,-2.408044442647787e+00
	1.988113447087413e+01,-4.328341830553283e+01
	5.648674804395665e+00,2.410718458638617e+00
	0.000000000000000e+00,0.000000000000000e+00
20		1.000000000000001e+02
	6.875442958439095e+01,-2.028033920724007e+02
	1.000000000000000e+00,0.000000000000000e+00
	0.000000000000000e+00,0.000000000000000e+00
	0.000000000000000e+00,0.000000000000000e+00
	0.000000000000000e+00,0.000000000000000e+00
	0.000000000000000e+00,0.000000000000000e+00
	1.382088004840138e+04,-3.641390263729066e+04
	6.875442958439095e+00,-2.028033920724008e+01
	-5.798953468334007e-05,-2.190437637527491e-05
	6.874844054333613e+01,-2.028054222806084e+02
	-2.551234876160625e-07,7.526050951957581e-07
	-5.795452598505614e-02,-2.199661386812551e-02
	5.989041054827559e+00,2.030208207647012e+00
	-1.445418454463825e+01,3.825710870654511e+01
	6.912589642323890e-01,-1.821209477290714e+00
	-6.677272894962150e+00,-1.462530175072412e-04
	0.000000000000000e+00,0.000000000000000e+00
	-6.677272894962150e+00,-1.462530175072412e-04
	-6.677272894962150e+00,-1.462530175072412e-04
	6.677272894962150e+00,1.462530175072412e-04
	0.000000000000000e+00,0.000000000000000e+00
	-3.529569849693768e-95,1.056475189098597e-94
	6.875442958439095e-04,-2.028033920724008e-03
	6.875442958439095e-04,-2.028033920724007e-03
	5.989041054817790e+00,2.030208207656869e+00
	6.875442958439095e-01,-2.028033920724007e+00
	1.376292558040586e+01,-3.643589922925441e+01
	5.989041054827561e+00,2.030208207647012e+00
	0.000000000000000e+00,0.000000000000000e+00
21		1.258925411794169e+02
	4.509669532828131e+01,-1.674586620317497e+02
	1.000000000000000e+00,0.000000000000000e+00
	0.000000000000000e+00,0.000000000000000e+00
	0.000000000000000e+00,0.000000000000000e+00
	0.000000000000000e+00,0.000000000000000e+00
	0.000000000000000e+00,0.000000000000000e+00
	9.545955092622480e+03,-3.005233469855717e+04
	4.509669532828132e+00,-1.674586620317497e+01
	-3.800779833736476e-05,-1.202008658010246e-05
	4.509046960672236e+01,-1.674603383732134e+02
	-2.651992864880771e-07,9.849168269697381e-07