Title: * C:\Users\mn080015\OneDrive - Qorvo\Documents\QSPICE\QSPICE_on_MWJ\Article4\Sim1\VRM_PSRR_OnOff.qsch
Date: Thu Jul 13 12:34:44 2023
Plotname: AC Analysis
Plot Suggestion(s): «AC 1/V(VOUT)»
Flags: complex stepped
Abscissa: 1.000000000000000e+00 1.000000000000000e+08 dec
No. Variables: 34
No. Points: 322                  
Command: QSPICE80, Build Jul 12 2023 21:15:52
.alias freq frequency
.alias omega 2*pi*frequency
Variables:
	0	frequency	frequency
	1	V(vout)	voltage
	2	V(n05)	voltage
	3	V(n01)	voltage
	4	V(ref)	voltage
	5	V(n02)	voltage
	6	V(vin)	voltage
	7	V(n03)	voltage
	8	V(n04)	voltage
	9	V(fb)	voltage
	10	V(n07)	voltage
	11	V(n08)	voltage
	12	V(n06)	voltage
	13	I(EBUF)	current
	14	I(EA)	current
	15	I(VSINE)	current
	16	I(VIN)	current
	17	I(VREF)	current
	18	I(VAC)	current
	19	I(L2)	current
	20	I(L1)	current
	21	Id(M_PMOS)	current
	22	Is(M_PMOS)	current
	23	Ig(M_PMOS)	current
	24	Ib(M_PMOS)	current
	25	I(RBW)	current
	26	I(R2)	current
	27	I(RG)	current
	28	I(RFB)	current
	29	I(RLOAD)	current
	30	I(CBW)	current
	31	I(COPEN)	current
	32	I(COUT)	current
	33	x	parameter
Values:
0		1.000000000000000e+00
	3.039578039177915e+02,-4.193005717777597e+00
	1.000000000000000e+00,0.000000000000000e+00
	0.000000000000000e+00,0.000000000000000e+00
	0.000000000000000e+00,0.000000000000000e+00
	-2.022565127371841e-07,-1.449874442457793e-05
	1.000000000000000e+00,0.000000000000000e+00
	3.039577981212158e+02,-4.193425878875252e+00
	-2.639950035434959e-10,3.642095996906629e-12
	3.039578039177916e+01,-4.193005717777597e-01
	-2.022565127371841e-07,-1.449874442457793e-05
	8.904501760121751e+01,1.290112509325814e+01
	9.118734117533747e+04,-1.257901715333279e+03
	0.000000000000000e+00,0.000000000000000e+00
	-9.109829615773624e-02,1.270802840426537e-03
	-3.043197274795265e+00,-4.412253059675943e-05
	-3.043197274795265e+00,-4.412253059675943e-05
	0.000000000000000e+00,0.000000000000000e+00
	-3.043197274795265e+00,-4.412253059675943e-05
	5.796575811228944e-04,4.201610976550980e-02
	2.053280137585765e-03,-1.417195474112872e-02
	-3.043197274795265e+00,-4.412253059675943e-05
	3.043197274795265e+00,4.412253059675943e-05
	0.000000000000000e+00,0.000000000000000e+00
	-4.138274480168165e-94,5.727467103566241e-96
	9.109829615773624e-02,-1.270802840426537e-03
	5.796575749172916e-04,4.201610976553027e-02
	3.039578039177915e-03,-4.193005717777597e-05
	3.039578039177915e-03,-4.193005717777597e-05
	3.039578039177915e+00,-4.193005717777597e-02
	-1.783323511903040e-09,1.230869961792967e-08
	9.109829794105977e-02,-1.270815149126155e-03
	5.796575811228943e-04,4.201610976550980e-02
	0.000000000000000e+00,0.000000000000000e+00
1		1.122018454301963e+00
	3.039427978152567e+02,-4.705414664893045e+00
	1.000000000000000e+00,0.000000000000000e+00
	0.000000000000000e+00,0.000000000000000e+00
	0.000000000000000e+00,0.000000000000000e+00
	-2.018354872532229e-07,-1.292131723608195e-05
	1.000000000000000e+00,0.000000000000000e+00
	3.039427905165828e+02,-4.705886070122095e+00
	-3.323336091062671e-10,5.145455495367603e-12
	3.039427978152567e+01,-4.705414664893045e-01
	-2.018354872532229e-07,-1.292131723608195e-05
	8.949450155775902e+01,1.127160310131234e+01
	9.118283934457701e+04,-1.411624399467913e+03
	0.000000000000000e+00,0.000000000000000e+00
	-9.109334484301924e-02,1.422896002569226e-03
	-3.043197273514002e+00,-3.932210944645696e-05
	-3.043197273514002e+00,-3.932210944645696e-05
	0.000000000000000e+00,0.000000000000000e+00
	-3.043197273514002e+00,-3.932210944645696e-05
	7.298673862334867e-04,4.714052290498015e-02
	1.598844831613183e-03,-1.269452590550040e-02
	-3.043197273514002e+00,-3.932210944645696e-05
	3.043197273514002e+00,3.932210944645696e-05
	0.000000000000000e+00,0.000000000000000e+00
	-4.138069503203176e-94,6.427395886332668e-96
	9.109334484301924e-02,-1.422896002569226e-03
	7.298673835975933e-04,4.714052290504256e-02
	3.039427978152567e-03,-4.705414664893045e-05
	3.039427978152567e-03,-4.705414664893045e-05
	3.039427978152567e+00,-4.705414664893045e-02
	-1.748188411605346e-09,1.388030159681849e-08
	9.109334659120769e-02,-1.422909882870822e-03
	7.298673862334866e-04,4.714052290498014e-02
	0.000000000000000e+00,0.000000000000000e+00
2		1.258925411794167e+00
	3.039239084154964e+02,-5.280140420376685e+00
	1.000000000000000e+00,0.000000000000000e+00
	0.000000000000000e+00,0.000000000000000e+00
	0.000000000000000e+00,0.000000000000000e+00
	-2.014931485263887e-07,-1.151537440470958e-05
	1.000000000000000e+00,0.000000000000000e+00
	3.039238992260040e+02,-5.280669312868254e+00
	-4.183572214644429e-10,7.268945110425093e-12
	3.039239084154964e+01,-5.280140420376686e-01
	-2.014931485263887e-07,-1.151537440470958e-05
	8.985275742887713e+01,9.765464540488688e+00
	9.117717252464892e+04,-1.584042126113006e+03
	0.000000000000000e+00,0.000000000000000e+00
	-9.108731976722005e-02,1.593807590653494e-03
	-3.043197272472198e+00,-3.504354891887335e-05
	-3.043197272472198e+00,-3.504354891887335e-05
	0.000000000000000e+00,0.000000000000000e+00
	-3.043197272472198e+00,-3.504354891887335e-05
	9.189492360306462e-04,5.288924915683822e-02
	1.234563836249157e-03,-1.135929928281530e-02
	-3.043197272472198e+00,-3.504354891887335e-05
	3.043197272472198e+00,3.504354891887335e-05
	0.000000000000000e+00,0.000000000000000e+00
	-4.137811482053158e-94,7.212446773372599e-96
	9.108731976722004e-02,-1.593807590653494e-03
	9.189492345740291e-04,5.288924915687332e-02
	3.039239084154964e-03,-5.280140420376686e-05
	3.039239084154964e-03,-5.280140420376686e-05
	3.039239084154964e+00,-5.280140420376685e-02
	-1.699399384280712e-09,1.563629871550344e-08
	9.108732146661941e-02,-1.593823226952209e-03
	9.189492360306462e-04,5.288924915683823e-02
	0.000000000000000e+00,0.000000000000000e+00
3		1.412537544622754e+00
	3.039001314546873e+02,-5.924759290341003e+00
	1.000000000000000e+00,0.000000000000000e+00
	0.000000000000000e+00,0.000000000000000e+00
	0.000000000000000e+00,0.000000000000000e+00
	-2.012133225573755e-07,-1.026225252171850e-05
	1.000000000000000e+00,0.000000000000000e+00
	3.039001198851296e+02,-5.925352671046491e+00
	-5.266393292436045e-10,1.026825444297055e-11
	3.039001314546873e+01,-5.924759290341003e-01
	-2.012133225573755e-07,-1.026225252171850e-05
	9.013681065329723e+01,8.370165476939450e+00
	9.117003943640618e+04,-1.777427787102301e+03
	0.000000000000000e+00,0.000000000000000e+00
	-9.107990262575287e-02,1.785797952579240e-03
	-3.043197271620633e+00,-3.123005259087304e-05
	-3.043197271620633e+00,-3.123005259087304e-05
	0.000000000000000e+00,0.000000000000000e+00
	-3.043197271620633e+00,-3.123005259087304e-05
	1.156955762163855e-03,5.933807054884677e-02
	9.430934055604446e-04,-1.015599129144979e-02
	-3.043197271620632e+00,-3.123005259087304e-05
	3.043197271620632e+00,3.123005259087304e-05
	0.000000000000000e+00,0.000000000000000e+00
	-4.137486698902304e-94,8.092968675931690e-96
	9.107990262575288e-02,-1.785797952579240e-03
	1.156955761416611e-03,5.933807054887552e-02
	3.039001314546873e-03,-5.924759290341003e-05
	3.039001314546872e-03,-5.924759290341003e-05
	3.039001314546873e+00,-5.924759290341003e-02
	-1.634318110050194e-09,1.759967857730979e-08
	9.107990426007102e-02,-1.785815552257818e-03
	1.156955762163855e-03,5.933807054884678e-02
	0.000000000000000e+00,0.000000000000000e+00
4		1.584893192461113e+00
	3.038702033614007e+02,-6.647754435248270e+00
	1.000000000000000e+00,0.000000000000000e+00
	0.000000000000000e+00,0.000000000000000e+00
	0.000000000000000e+00,0.000000000000000e+00
	-2.009824259219937e-07,-9.145318105024638e-06
	1.000000000000000e+00,0.000000000000000e+00
	3.038701887960480e+02,-6.648420153777254e+00
	-6.629343356748882e-10,1.450443696176563e-11
	3.038702033614007e+01,-6.647754435248271e-01
	-2.009824259219937e-07,-9.145318105024638e-06
	9.036047370896152e+01,7.072569164571592e+00
	9.116106100842021e+04,-1.994326330574481e+03
	0.000000000000000e+00,0.000000000000000e+00
	-9.107070053471124e-02,2.001398899739053e-03
	-3.043197270917969e+00,-2.783100150534547e-05
	-3.043197270917969e+00,-2.783100150534547e-05
	0.000000000000000e+00,0.000000000000000e+00
	-3.043197270917969e+00,-2.783100150534547e-05
	1.456535273298193e-03,6.657185289827600e-02
	7.102281742251136e-04,-9.073997005792984e-03
	-3.043197270917969e+00,-2.783100150534547e-05
	3.043197270917969e+00,2.783100150534547e-05
	0.000000000000000e+00,0.000000000000000e+00
	-4.137077893903435e-94,9.080549229647053e-96
	9.107070053471124e-02,-2.001398899739053e-03
	1.456535267152503e-03,6.657185289835610e-02
	3.038702033614007e-03,-6.647754435248271e-05
	3.038702033614007e-03,-6.647754435248271e-05
	3.038702033614007e+00,-6.647754435248271e-02
	-1.549457799399755e-09,1.979616423510345e-08
	9.107070208416908e-02,-2.001418695903289e-03
	1.456535273298193e-03,6.657185289827598e-02
	0.000000000000000e+00,0.000000000000000e+00
5		1.778279410038922e+00
	3.038325345352807e+02,-7.458619964359017e+00
	1.000000000000000e+00,0.000000000000000e+00
	0.000000000000000e+00,0.000000000000000e+00
	0.000000000000000e+00,0.000000000000000e+00
	-2.007890059591716e-07,-8.149746325850793e-06
	1.000000000000000e+00,0.000000000000000e+00
	3.038325161992844e+02,-7.459366820230257e+00
	-8.344814130749986e-10,2.048728372683592e-11
	3.038325345352807e+01,-7.458619964359018e-01
	-2.007890059591716e-07,-8.149746325850793e-06
	9.053481894933587e+01,5.859336408724898e+00
	9.114976036058422e+04,-2.237585989307705e+03
	0.000000000000000e+00,0.000000000000000e+00
	-9.105922554163487e-02,2.243445325716431e-03
	-3.043197270329354e+00,-2.480128079288130e-05
	-3.043197270329354e+00,-2.480128079288130e-05
	0.000000000000000e+00,0.000000000000000e+00
	-3.043197270329354e+00,-2.480128079288130e-05
	1.833599634143386e-03,7.468558712395421e-02
	5.244078318034864e-04,-8.102812138705348e-03
	-3.043197270329354e+00,-2.480128079288130e-05
	3.043197270329354e+00,2.480128079288130e-05
	0.000000000000000e+00,0.000000000000000e+00
	-4.136563353793181e-94,1.018815698312734e-95
	9.105922554163487e-02,-2.243445325716431e-03
	1.833599634437633e-03,7.468558712400153e-02
	3.038325345352808e-03,-7.458619964359019e-05
	3.038325345352807e-03,-7.458619964359017e-05
	3.038325345352807e+00,-7.458619964359017e-02
	-1.440293439671040e-09,2.225451769598797e-08
	9.105922698192837e-02,-2.243467580234125e-03
	1.833599634143386e-03,7.468558712395421e-02
	0.000000000000000e+00,0.000000000000000e+00
6		1.995262314968879e+00
	3.037851255951580e+02,-8.367974965009617e+00
	1.000000000000000e+00,0.000000000000000e+00
	0.000000000000000e+00,0.000000000000000e+00
	0.000000000000000e+00,0.000000000000000e+00
	-2.006233022015244e-07,-7.262323883774050e-06
	1.000000000000000e+00,0.000000000000000e+00
	3.037851025135318e+02,-8.368812820310414e+00
	-1.050385916136366e-09,2.893651811273211e-11
	3.037851255951580e+01,-8.367974965009618e-01
	-2.006233022015244e-07,-7.262323883774050e-06
	9.066859796578476e+01,4.717168067327434e+00
	9.113553767854739e+04,-2.510392489502885e+03
	0.000000000000000e+00,0.000000000000000e+00
	-9.104486908058160e-02,2.515109657570213e-03
	-3.043197269825085e+00,-2.210067978177534e-05
	-3.043197269825085e+00,-2.210067978177534e-05
	0.000000000000000e+00,0.000000000000000e+00
	-3.043197269825085e+00,-2.210067978177534e-05
	2.308162620503014e-03,8.378553007944683e-02
	3.762722151933483e-04,-7.232309994098034e-03
	-3.043197269825085e+00,-2.210067978177534e-05
	3.043197269825085e+00,2.210067978177534e-05
	0.000000000000000e+00,0.000000000000000e+00
	-4.135915767876909e-94,1.143029715708596e-95
	9.104486908058161e-02,-2.515109657570212e-03
	2.308162618192000e-03,8.378553007961642e-02
	3.037851255951580e-03,-8.367974965009619e-05
	3.037851255951580e-03,-8.367974965009617e-05
	3.037851255951580e+00,-8.367974965009617e-02
	-1.301019779188454e-09,2.500687650329701e-08
	9.104487038160140e-02,-2.515134664446716e-03
	2.308162620503014e-03,8.378553007944683e-02
	0.000000000000000e+00,0.000000000000000e+00
7		2.238721138568339e+00
	3.037254623297719e+02,-9.387687556124868e+00
	1.000000000000000e+00,0.000000000000000e+00
	0.000000000000000e+00,0.000000000000000e+00
	0.000000000000000e+00,0.000000000000000e+00
	-2.004768376630029e-07,-6.471273380181500e-06
	1.000000000000000e+00,0.000000000000000e+00
	3.037254332758573e+02,-9.388627460582812e+00
	-1.322097785562061e-09,4.086810722847336e-11
	3.037254623297719e+01,-9.387687556124868e-01
	-2.004768376630029e-07,-6.471273380181500e-06
	9.076859805803706e+01,3.632938498099055e+00
	9.111763869893158e+04,-2.816306266837460e+03
	0.000000000000000e+00,0.000000000000000e+00
	-9.102687010087354e-02,2.819939205335559e-03
	-3.043197269379364e+00,-1.969335753191367e-05
	-3.043197269379364e+00,-1.969335753191367e-05
	0.000000000000000e+00,0.000000000000000e+00
	-3.043197269379364e+00,-1.969335753191367e-05
	2.905391461296823e-03,9.399044579425071e-02
	2.582729666036998e-04,-6.452912263830803e-03
	-3.043197269379364e+00,-1.969335753191367e-05
	3.043197269379364e+00,1.969335753191367e-05
	0.000000000000000e+00,0.000000000000000e+00
	-4.135100793100363e-94,1.282318109615210e-95
	9.102687010087353e-02,-2.819939205335559e-03
	2.905391460217288e-03,9.399044579438964e-02
	3.037254623297720e-03,-9.387687556124869e-05
	3.037254623297720e-03,-9.387687556124867e-05
	3.037254623297719e+00,-9.387687556124868e-02
	-1.124244042701563e-09,2.808912280918002e-08
	9.102687122511760e-02,-2.819967294458369e-03
	2.905391461296824e-03,9.399044579425071e-02
	0.000000000000000e+00,0.000000000000000e+00
8		2.511886431509579e+00
	3.036503840624042e+02,-1.053100861023308e+01
	1.000000000000000e+00,0.000000000000000e+00
	0.000000000000000e+00,0.000000000000000e+00
	0.000000000000000e+00,0.000000000000000e+00
	-2.003420396101506e-07,-5.766096832942312e-06
	1.000000000000000e+00,0.000000000000000e+00
	3.036503474931591e+02,-1.053206293966863e+01
	-1.664011027272206e-09,5.771595196992295e-11
	3.036503840624042e+01,-1.053100861023308e+00
	-2.003420396101506e-07,-5.766096832942312e-06
	9.083993371984640e+01,2.593750347212777e+00
	9.109511521872124e+04,-3.159302583069924e+03
	0.000000000000000e+00,0.000000000000000e+00
	-9.100427528500139e-02,3.161896333417136e-03
	-3.043197268969148e+00,-1.754736661914648e-05
	-3.043197268969148e+00,-1.754736661914648e-05
	0.000000000000000e+00,0.000000000000000e+00
	-3.043197268969148e+00,-1.754736661914648e-05
	3.656924507429755e-03,1.054329435549500e-01
	1.643422654104464e-04,-5.755683988009947e-03
	-3.043197268969148e+00,-1.754736661914648e-05
	3.043197268969148e+00,1.754736661914648e-05
	0.000000000000000e+00,0.000000000000000e+00
	-4.134075255966659e-94,1.438490892744403e-95
	9.100427528500139e-02,-3.161896333417137e-03
	3.656924502593029e-03,1.054329435550727e-01
	3.036503840624042e-03,-1.053100861023308e-04
	3.036503840624042e-03,-1.053100861023308e-04
	3.036503840624042e+00,-1.053100861023308e-01
	-9.005974674781916e-10,3.154128320101229e-08
	9.100427618559889e-02,-3.161927874700337e-03
	3.656924507429755e-03,1.054329435549501e-01
	0.000000000000000e+00,0.000000000000000e+00
9		2.818382931264452e+00
	3.035559189021546e+02,-1.181271410698019e+01
	1.000000000000000e+00,0.000000000000000e+00
	0.000000000000000e+00,0.000000000000000e+00
	0.000000000000000e+00,0.000000000000000e+00
	-2.002118838817937e-07,-5.137436235969054e-06
	1.000000000000000e+00,0.000000000000000e+00
	3.035558728769510e+02,-1.181389671600458e+01
	-2.094213992958440e-09,8.150337392446830e-11
	3.035559189021546e+01,-1.181271410698019e+00
	-2.002118838817937e-07,-5.137436235969054e-06
	9.088627488033400e+01,1.586933941936219e+00
	9.106677567064640e+04,-3.543814232094056e+03
	0.000000000000000e+00,0.000000000000000e+00
	-9.097588939576605e-02,3.545401166035992e-03
	-3.043197268573058e+00,-1.563422879061088e-05
	-3.043197268573058e+00,-1.563422879061088e-05
	0.000000000000000e+00,0.000000000000000e+00
	-3.043197268573058e+00,-1.563422879061088e-05
	4.602520365437550e-03,1.182609024395476e-01
	8.961493346630302e-05,-5.132375653364105e-03
	-3.043197268573058e+00,-1.563422879061088e-05
	3.043197268573058e+00,1.563422879061088e-05
	0.000000000000000e+00,0.000000000000000e+00
	-4.132784902138931e-94,1.613566400940227e-95
	9.097588939576606e-02,-3.545401166035992e-03
	4.602520363050644e-03,1.182609024395376e-01
	3.035559189021546e-03,-1.181271410698019e-04
	3.035559189021546e-03,-1.181271410698019e-04
	3.035559189021547e+00,-1.181271410698019e-01
	-6.182461182673251e-10,3.540795565829779e-08
	9.097589001401220e-02,-3.545436573991650e-03
	4.602520365437551e-03,1.182609024395476e-01
	0.000000000000000e+00,0.000000000000000e+00
10		3.162277660168377e+00
	3.034370778706293e+02,-1.324925406469215e+01
	1.000000000000000e+00,0.000000000000000e+00
	0.000000000000000e+00,0.000000000000000e+00
	0.000000000000000e+00,0.000000000000000e+00
	-2.000795534099166e-07,-4.576949299517659e-06
	1.000000000000000e+00,0.000000000000000e+00
	3.034370199494424e+02,-1.325058045430959e+01
	-2.635426945863761e-09,1.150846287097135e-10
	3.034370778706293e+01,-1.324925406469215e+00
	-2.000795534099166e-07,-4.576949299517659e-06
	9.091001520245575e+01,6.000089035987514e-01
	9.103112336118877e+04,-3.974776219407645e+03
	0.000000000000000e+00,0.000000000000000e+00
	-9.094021334598631e-02,3.975376228311244e-03
	-3.043197268170350e+00,-1.392855681802691e-05
	-3.043197268170350e+00,-1.392855681802691e-05
	0.000000000000000e+00,0.000000000000000e+00
	-3.043197268170350e+00,-1.392855681802691e-05
	5.792118688297311e-03,1.326389617442578e-01
	3.019820572805440e-05,-4.575429447616387e-03
	-3.043197268170350e+00,-1.392855681802691e-05
	3.043197268170350e+00,1.392855681802691e-05
	0.000000000000000e+00,0.000000000000000e+00
	-4.131161584298629e-94,1.809791636595632e-95
	9.094021334598630e-02,-3.975376228311244e-03
	5.792118685121750e-03,1.326389617442914e-01
	3.034370778706293e-03,-1.324925406469215e-04
	3.034370778706293e-03,-1.324925406469215e-04
	3.034370778706293e+00,-1.324925406469215e-01
	-2.622770221728746e-10,3.973875709204111e-08
	9.094021360826338e-02,-3.975415967068336e-03
	5.792118688297312e-03,1.326389617442578e-01
	0.000000000000000e+00,0.000000000000000e+00
11		3.548133892335751e+00
	3.032875981427655e+02,-1.485890450847190e+01
	1.000000000000000e+00,0.000000000000000e+00
	0.000000000000000e+00,0.000000000000000e+00
	0.000000000000000e+00,0.000000000000000e+00
	-1.999380994366375e-07,-4.077198713729150e-06
	1.000000000000000e+00,0.000000000000000e+00
	3.032875252586622e+02,-1.486039200889037e+01
	-3.316171365532420e-09,1.624847788199848e-10
	3.032875981427656e+01,-1.485890450847190e+00
	-1.999380994366375e-07,-4.077198713729150e-06
	9.091238388055091e+01,-3.793786030472843e-01
	9.098627944282966e+04,-4.457671352541570e+03
	0.000000000000000e+00,0.000000000000000e+00
	-9.089536705894910e-02,4.457291973938522e-03
	-3.043197267739878e+00,-1.240771750487764e-05
	-3.043197267739878e+00,-1.240771750487764e-05
	0.000000000000000e+00,0.000000000000000e+00
	-3.043197267739878e+00,-1.240771750487764e-05
	7.288410333740241e-03,1.487500418471643e-01
	-1.701720760943330e-05,-4.077962036870501e-03
	-3.043197267739878e+00,-1.240771750487764e-05
	3.043197267739878e+00,1.240771750487764e-05
	0.000000000000000e+00,0.000000000000000e+00
	-4.129119754924632e-94,2.029663026846818e-95
	9.089536705894910e-02,-4.457291973938522e-03
	7.288410330374973e-03,1.487500418473786e-01
	3.032875981427656e-03,-1.485890450847190e-04
	3.032875981427655e-03,-1.485890450847190e-04
	3.032875981427655e+00,-1.485890450847190e-01
	1.860695820939644e-10,4.458878054735731e-08
	9.089536687287957e-02,-4.457336562719071e-03
	7.288410333740240e-03,1.487500418471643e-01
	0.000000000000000e+00,0.000000000000000e+00
12		3.981071705534969e+00
	3.030996236222364e+02,-1.666191678755825e+01
	1.000000000000000e+00,0.000000000000000e+00
	0.000000000000000e+00,0.000000000000000e+00
	0.000000000000000e+00,0.000000000000000e+00
	-1.997800924257018e-07,-3.631553462024766e-06
	1.000000000000000e+00,0.000000000000000e+00
	3.030995319218884e+02,-1.666358475594400e+01
	-4.172224636710495e-09,2.293775197007917e-10
	3.030996236222364e+01,-1.666191678755825e+00
	-1.997800924257018e-07,-3.631553462024766e-06
	9.089350367117464e+01,-1.363532454773261e+00
	9.092988708667093e+04,-4.998575036267474e+03
	0.000000000000000e+00,0.000000000000000e+00
	-9.083899358299977e-02,4.997211503812701e-03
	-3.043197267259032e+00,-1.105153136366289e-05
	-3.043197267259032e+00,-1.105153136366289e-05
	0.000000000000000e+00,0.000000000000000e+00
	-3.043197267259032e+00,-1.105153136366289e-05
	9.170034803388179e-03,1.667968385746600e-01
	-5.451103831211810e-05,-3.633732699637681e-03
	-3.043197267259032e+00,-1.105153136366289e-05
	3.043197267259032e+00,1.105153136366289e-05
	0.000000000000000e+00,0.000000000000000e+00
	-4.126552103089400e-94,2.275946819688066e-95
	9.083899358299975e-02,-4.997211503812701e-03
	9.170034803673843e-03,1.667968385749674e-01
	3.030996236222364e-03,-1.666191678755825e-04
	3.030996236222364e-03,-1.666191678755825e-04
	3.030996236222364e+00,-1.666191678755825e-01
	7.503571559662222e-10,5.001904477709514e-08
	9.083899283264263e-02,-4.997261522857480e-03
	9.170034803388179e-03,1.667968385746600e-01
	0.000000000000000e+00,0.000000000000000e+00
13		4.466835921509626e+00
	3.028633088193794e+02,-1.868065550065599e+01
	1.000000000000000e+00,0.000000000000000e+00
	0.000000000000000e+00,0.000000000000000e+00
	0.000000000000000e+00,0.000000000000000e+00
	-1.995972484724104e-07,-3.234100875286226e-06
	1.000000000000000e+00,0.000000000000000e+00
	3.028631934639252e+02,-1.868252553269165e+01
	-5.248424025669807e-09,3.237561314221062e-10
	3.028633088193794e+01,-1.868065550065599e+00
	-1.995972484724104e-07,-3.234100875286226e-06
	9.085239671271339e+01,-2.364788171026539e+00
	9.085899264581382e+04,-5.604196650196797e+03
	0.000000000000000e+00,0.000000000000000e+00
	-9.076814024910111e-02,5.601831862025771e-03
	-3.043197266702601e+00,-9.842004979474422e-06
	-3.043197266702601e+00,-9.842004979474422e-06
	0.000000000000000e+00,0.000000000000000e+00
	-3.043197266702601e+00,-9.842004979474422e-06
	1.153554542355411e-02,1.870032035663645e-01
	-8.425812335049397e-05,-3.237103022009878e-03
	-3.043197266702601e+00,-9.842004979474422e-06
	3.043197266702601e+00,9.842004979474422e-06
	0.000000000000000e+00,0.000000000000000e+00
	-4.123324143600314e-94,2.551697923983990e-95
	9.076814024910111e-02,-5.601831862025770e-03
	1.153554542270285e-02,1.870032035661495e-01
	3.028633088193794e-03,-1.868065550065599e-04
	3.028633088193794e-03,-1.868065550065599e-04
	3.028633088193794e+00,-1.868065550065599e-01
	1.460140991953926e-09,5.609690977087625e-08
	9.076813878896013e-02,-5.601887958935543e-03
	1.153554542355411e-02,1.870032035663645e-01
	0.000000000000000e+00,0.000000000000000e+00
14		5.011872336272718e+00
	3.025663296116626e+02,-2.093971199385759e+01
	1.000000000000000e+00,0.000000000000000e+00
	0.000000000000000e+00,0.000000000000000e+00
	0.000000000000000e+00,0.000000000000000e+00
	-1.993800159510519e-07,-2.879568264820080e-06
	1.000000000000000e+00,0.000000000000000e+00
	3.025661845285963e+02,-2.094180814665910e+01
	-6.600894722078683e-09,4.568741582325280e-10
	3.025663296116626e+01,-2.093971199385759e+00
	-1.993800159510519e-07,-2.879568264820080e-06
	9.078693829508249e+01,-3.395591348013259e+00
	9.076989888349878e+04,-6.281913598157278e+03
	0.000000000000000e+00,0.000000000000000e+00
	-9.067911194520370e-02,6.278518006809265e-03
	-3.043197266041520e+00,-8.763092523694863e-06
	-3.043197266041520e+00,-8.763092523694863e-06
	0.000000000000000e+00,0.000000000000000e+00
	-3.043197266041520e+00,-8.763092523694863e-06
	1.450830663171523e-02,2.096152801508349e-01
	-1.078289016956023e-04,-2.882992434783227e-03
	-3.043197266041521e+00,-8.763092523694863e-06
	3.043197266041521e+00,8.763092523694863e-06
	0.000000000000000e+00,0.000000000000000e+00
	-4.119267534196158e-94,2.860275412801909e-95
	9.067911194520369e-02,-6.278518006809264e-03
	1.450830662861335e-02,2.096152801509987e-01
	3.025663296116626e-03,-2.093971199385759e-04
	3.025663296116626e-03,-2.093971199385759e-04
	3.025663296116626e+00,-2.093971199385759e-01
	2.352436815718767e-09,6.289641895704481e-08
	9.067910959276690e-02,-6.278580903228223e-03
	1.450830663171523e-02,2.096152801508349e-01
	0.000000000000000e+00,0.000000000000000e+00
15		5.623413251903484e+00
	3.021932821520318e+02,-2.346597443210549e+01
	1.000000000000000e+00,0.000000000000000e+00
	0.000000000000000e+00,0.000000000000000e+00
	0.000000000000000e+00,0.000000000000000e+00
	-1.991171061996847e-07,-2.563253104260824e-06
	1.000000000000000e+00,0.000000000000000e+00
	3.021930997269228e+02,-2.346832345415098e+01
	-8.299787265773347e-09,6.445616803623204e-10
	3.021932821520318e+01,-2.346597443210549e+00
	-1.991171061996847e-07,-2.563253104260824e-06
	9.069375732615407e+01,-4.468564340959388e+00
	9.065798464560953e+04,-7.039792329631648e+03
	0.000000000000000e+00,0.000000000000000e+00
	-9.056729088828337e-02,7.035323765290688e-03
	-3.043197265241434e+00,-7.800483283798499e-06
	-3.043197265241434e+00,-7.800483283798499e-06
	0.000000000000000e+00,0.000000000000000e+00
	-3.043197265241434e+00,-7.800483283798499e-06
	1.824251090253010e-02,2.349022045484318e-01
	-1.264701105138820e-04,-2.566832486095303e-03
	-3.043197265241434e+00,-7.800483283798499e-06
	3.043197265241434e+00,7.800483283798499e-06
	0.000000000000000e+00,0.000000000000000e+00
	-4.114171864891331e-94,3.205352094874952e-95
	9.056729088828337e-02,-7.035323765290688e-03
	1.824251090170037e-02,2.349022045486038e-01
	3.021932821520318e-03,-2.346597443210549e-04
	3.021932821520318e-03,-2.346597443210549e-04
	3.021932821520318e+00,-2.346597443210549e-01
	3.473526085731895e-09,7.049851089704072e-08
	9.056728741475732e-02,-7.035394263801585e-03
	1.824251090253010e-02,2.349022045484318e-01
	0.000000000000000e+00,0.000000000000000e+00
16		6.309573444801925e+00
	3.017249493369007e+02,-2.628862727361287e+01
	1.000000000000000e+00,0.000000000000000e+00
	0.000000000000000e+00,0.000000000000000e+00
	0.000000000000000e+00,0.000000000000000e+00
	-1.987949514041434e-07,-2.280960849985029e-06
	1.000000000000000e+00,0.000000000000000e+00
	3.017247200316868e+02,-2.629125883461709e+01
	-1.043261811915931e-08,9.090626159659974e-10
	3.017249493369007e+01,-2.628862727361287e+00
	-1.987949514041434e-07,-2.280960849985029e-06
	9.056808099554411e+01,-5.596551146489475e+00
	9.051748480107023e+04,-7.886588182083862e+03
	0.000000000000000e+00,0.000000000000000e+00
	-9.042691672007468e-02,7.880991630937372e-03
	-3.043197264261054e+00,-6.941412438643261e-06
	-3.043197264261054e+00,-6.941412438643261e-06
	0.000000000000000e+00,0.000000000000000e+00
	-3.043197264261054e+00,-6.941412438643261e-06
	2.293052140160638e-02,2.631561004210483e-01
	-1.411693554241814e-04,-2.284521756427498e-03
	-3.043197264261054e+00,-6.941412438643261e-06
	3.043197264261054e+00,6.941412438643261e-06
	0.000000000000000e+00,0.000000000000000e+00
	-4.107774638241220e-94,3.590914442810172e-95
	9.042691672007469e-02,-7.880991630937372e-03
	2.293052139634710e-02,2.631561004211136e-01
	3.017249493369008e-03,-2.628862727361288e-04
	3.017249493369008e-03,-2.628862727361288e-04
	3.017249493369007e+00,-2.628862727361287e-01
	4.881159804579917e-09,7.899101874741321e-08
	9.042691183891488e-02,-7.881070621956124e-03
	2.293052140160637e-02,2.631561004210484e-01
	0.000000000000000e+00,0.000000000000000e+00
17		7.079457843841370e+00
	3.011374135231430e+02,-2.943904195490769e+01
	1.000000000000000e+00,0.000000000000000e+00
	0.000000000000000e+00,0.000000000000000e+00
	0.000000000000000e+00,0.000000000000000e+00
	-1.983970729064576e-07,-2.028949598317589e-06
	1.000000000000000e+00,0.000000000000000e+00
	3.011371254056062e+02,-2.944198886475230e+01
	-1.310831043586893e-08,1.281591332748620e-09
	3.011374135231431e+01,-2.943904195490769e+00
	-1.983970729064576e-07,-2.028949598317589e-06
	9.040352029594204e+01,-6.792627824817744e+00
	9.034122405694293e+04,-8.831712586472306e+03
	0.000000000000000e+00,0.000000000000000e+00
	-9.025082053664697e-02,8.824919958647487e-03
	-3.043197263050231e+00,-6.174492639465685e-06
	-3.043197263050231e+00,-6.174492639465685e-06
	0.000000000000000e+00,0.000000000000000e+00
	-3.043197263050231e+00,-6.174492639465685e-06
	2.881175368649364e-02,2.946909844609796e-01
	-1.527066049169851e-04,-2.032382631121990e-03
	-3.043197263050232e+00,-6.174492639465685e-06
	3.043197263050232e+00,6.174492639465685e-06
	0.000000000000000e+00,0.000000000000000e+00
	-4.099749149434475e-94,4.021247661131464e-95
	9.025082053664699e-02,-8.824919958647488e-03
	2.881175368543154e-02,2.946909844609991e-01
	3.011374135231431e-03,-2.943904195490769e-04
	3.011374135231430e-03,-2.943904195490769e-04
	3.011374135231430e+00,-2.943904195490769e-01
	6.647224841473457e-09,8.846834264525288e-08
	9.025081388942213e-02,-8.825008426990136e-03
	2.881175368649363e-02,2.946909844609796e-01
	0.000000000000000e+00,0.000000000000000e+00
18		7.943282347242804e+00
	3.004009956924601e+02,-3.295050601543227e+01
	1.000000000000000e+00,0.000000000000000e+00
	0.000000000000000e+00,0.000000000000000e+00
	0.000000000000000e+00,0.000000000000000e+00
	-1.979033446340342e-07,-1.803880877694024e-06
	1.000000000000000e+00,0.000000000000000e+00
	3.004006338595134e+02,-3.295380441598007e+01
	-1.646202520409450e-08,1.805876212366669e-09
	3.004009956924601e+01,-3.295050601543227e+00
	-1.979033446340342e-07,-1.803880877694024e-06
	9.019179297144038e+01,-8.070061908261625e+00
	9.012029870773802e+04,-9.885151804629682e+03
	0.000000000000000e+00,0.000000000000000e+00
	-9.003010691476658e-02,9.877081742721420e-03
	-3.043197261547719e+00,-5.489564260753622e-06
	-3.043197261547719e+00,-5.489564260753622e-06
	0.000000000000000e+00,0.000000000000000e+00
	-3.043197261547719e+00,-5.489564260753622e-06
	3.618329466910982e-02,3.298400547784179e-01
	-1.616951155093609e-04,-1.807120668977036e-03
	-3.043197261547719e+00,-5.489564260753622e-06
	3.043197261547719e+00,5.489564260753622e-06
	0.000000000000000e+00,0.000000000000000e+00
	-4.089689995730406e-94,4.500898685854356e-95
	9.003010691476658e-02,-9.877081742721420e-03
	3.618329466803516e-02,3.298400547791402e-01